+ 0.5 1 0 tcp 1000 ------- 1 1.0 7.0 0 0
- 0.5 1 0 tcp 1000 ------- 1 1.0 7.0 0 0
r 0.514 1 0 tcp 1000 ------- 1 1.0 7.0 0 0
+ 0.514 0 3 tcp 1000 ------- 1 1.0 7.0 0 0
- 0.514 0 3 tcp 1000 ------- 1 1.0 7.0 0 0
r 0.542 0 3 tcp 1000 ------- 1 1.0 7.0 0 0
h 0.542 3 9 tcp 1000 ------- 1 1.0 7.0 0 0
+ 0.582 3 9 tcp 1000 ------- 1 1.0 7.0 0 0
- 0.582 3 9 tcp 1000 ------- 1 1.0 7.0 0 0
r 0.637848 9 7 tcp 1000 ------- 1 1.0 7.0 0 0
h 0.637848 7 9 ack 40 ------- 1 7.0 1.0 0 1
+ 0.677848 7 9 ack 40 ------- 1 7.0 1.0 0 1
- 0.677848 7 9 ack 40 ------- 1 7.0 1.0 0 1
r 0.718852 9 3 ack 40 ------- 1 7.0 1.0 0 1
+ 0.718852 3 0 ack 40 ------- 1 7.0 1.0 0 1
- 0.718852 3 0 ack 40 ------- 1 7.0 1.0 0 1
r 0.739172 3 0 ack 40 ------- 1 7.0 1.0 0 1
+ 0.739172 0 1 ack 40 ------- 1 7.0 1.0 0 1
- 0.739172 0 1 ack 40 ------- 1 7.0 1.0 0 1
r 0.749332 0 1 ack 40 ------- 1 7.0 1.0 0 1
+ 0.749332 1 0 tcp 1000 ------- 1 1.0 7.0 1 2
- 0.749332 1 0 tcp 1000 ------- 1 1.0 7.0 1 2
r 0.763332 1 0 tcp 1000 ------- 1 1.0 7.0 1 2
+ 0.763332 0 3 tcp 1000 ------- 1 1.0 7.0 1 2
- 0.763332 0 3 tcp 1000 ------- 1 1.0 7.0 1 2
r 0.791332 0 3 tcp 1000 ------- 1 1.0 7.0 1 2
h 0.791332 3 9 tcp 1000 ------- 1 1.0 7.0 1 2
+ 0.831332 3 9 tcp 1000 ------- 1 1.0 7.0 1 2
- 0.831332 3 9 tcp 1000 ------- 1 1.0 7.0 1 2
r 0.88718 9 7 tcp 1000 ------- 1 1.0 7.0 1 2
h 0.88718 7 9 ack 40 ------- 1 7.0 1.0 1 3
+ 0.92718 7 9 ack 40 ------- 1 7.0 1.0 1 3
- 0.92718 7 9 ack 40 ------- 1 7.0 1.0 1 3
r 0.968184 9 3 ack 40 ------- 1 7.0 1.0 1 3
+ 0.968184 3 0 ack 40 ------- 1 7.0 1.0 1 3
- 0.968184 3 0 ack 40 ------- 1 7.0 1.0 1 3
r 0.988504 3 0 ack 40 ------- 1 7.0 1.0 1 3
+ 0.988504 0 1 ack 40 ------- 1 7.0 1.0 1 3
- 0.988504 0 1 ack 40 ------- 1 7.0 1.0 1 3
r 0.998664 0 1 ack 40 ------- 1 7.0 1.0 1 3
+ 0.998664 1 0 tcp 1000 ------- 1 1.0 7.0 2 4
- 0.998664 1 0 tcp 1000 ------- 1 1.0 7.0 2 4
+ 0.998664 1 0 tcp 1000 ------- 1 1.0 7.0 3 5
+ 0.998664 1 0 tcp 1000 ------- 1 1.0 7.0 4 6
+ 1 2 0 tcp 40 ------- 2 2.0 8.0 0 7
- 1 2 0 tcp 40 ------- 2 2.0 8.0 0 7
- 1.002664 1 0 tcp 1000 ------- 1 1.0 7.0 3 5
- 1.006664 1 0 tcp 1000 ------- 1 1.0 7.0 4 6
r 1.01016 2 0 tcp 40 ------- 2 2.0 8.0 0 7
+ 1.01016 0 3 tcp 40 ------- 2 2.0 8.0 0 7
- 1.01016 0 3 tcp 40 ------- 2 2.0 8.0 0 7
r 1.012664 1 0 tcp 1000 ------- 1 1.0 7.0 2 4
+ 1.012664 0 3 tcp 1000 ------- 1 1.0 7.0 2 4
- 1.012664 0 3 tcp 1000 ------- 1 1.0 7.0 2 4
r 1.016664 1 0 tcp 1000 ------- 1 1.0 7.0 3 5
+ 1.016664 0 3 tcp 1000 ------- 1 1.0 7.0 3 5
r 1.020664 1 0 tcp 1000 ------- 1 1.0 7.0 4 6
+ 1.020664 0 3 tcp 1000 ------- 1 1.0 7.0 4 6
- 1.020664 0 3 tcp 1000 ------- 1 1.0 7.0 3 5
- 1.028664 0 3 tcp 1000 ------- 1 1.0 7.0 4 6
r 1.03048 0 3 tcp 40 ------- 2 2.0 8.0 0 7
h 1.03048 3 9 tcp 40 ------- 2 2.0 8.0 0 7
r 1.040664 0 3 tcp 1000 ------- 1 1.0 7.0 2 4
h 1.040664 3 9 tcp 1000 ------- 1 1.0 7.0 2 4
r 1.048664 0 3 tcp 1000 ------- 1 1.0 7.0 3 5
h 1.048664 3 9 tcp 1000 ------- 1 1.0 7.0 3 5
r 1.056664 0 3 tcp 1000 ------- 1 1.0 7.0 4 6
h 1.056664 3 9 tcp 1000 ------- 1 1.0 7.0 4 6
+ 1.07048 3 9 tcp 40 ------- 2 2.0 8.0 0 7
- 1.07048 3 9 tcp 40 ------- 2 2.0 8.0 0 7
+ 1.080664 3 9 tcp 1000 ------- 1 1.0 7.0 2 4
- 1.080664 3 9 tcp 1000 ------- 1 1.0 7.0 2 4
+ 1.088664 3 9 tcp 1000 ------- 1 1.0 7.0 3 5
+ 1.096664 3 9 tcp 1000 ------- 1 1.0 7.0 4 6
- 1.096695 3 9 tcp 1000 ------- 1 1.0 7.0 3 5
r 1.111484 9 8 tcp 40 ------- 2 2.0 8.0 0 7
h 1.111484 8 9 ack 40 ------- 2 8.0 2.0 0 8
- 1.112726 3 9 tcp 1000 ------- 1 1.0 7.0 4 6
r 1.136511 9 7 tcp 1000 ------- 1 1.0 7.0 2 4
h 1.136511 7 9 ack 40 ------- 1 7.0 1.0 2 9
+ 1.151484 8 9 ack 40 ------- 2 8.0 2.0 0 8
- 1.151484 8 9 ack 40 ------- 2 8.0 2.0 0 8
r 1.152543 9 7 tcp 1000 ------- 1 1.0 7.0 3 5
h 1.152543 7 9 ack 40 ------- 1 7.0 1.0 3 10
r 1.168574 9 7 tcp 1000 ------- 1 1.0 7.0 4 6
h 1.168574 7 9 ack 40 ------- 1 7.0 1.0 4 11
+ 1.176511 7 9 ack 40 ------- 1 7.0 1.0 2 9
- 1.176511 7 9 ack 40 ------- 1 7.0 1.0 2 9
r 1.192488 9 3 ack 40 ------- 2 8.0 2.0 0 8
+ 1.192488 3 0 ack 40 ------- 2 8.0 2.0 0 8
- 1.192488 3 0 ack 40 ------- 2 8.0 2.0 0 8
+ 1.192543 7 9 ack 40 ------- 1 7.0 1.0 3 10
- 1.192543 7 9 ack 40 ------- 1 7.0 1.0 3 10
+ 1.208574 7 9 ack 40 ------- 1 7.0 1.0 4 11
- 1.208574 7 9 ack 40 ------- 1 7.0 1.0 4 11
r 1.212808 3 0 ack 40 ------- 2 8.0 2.0 0 8
+ 1.212808 0 2 ack 40 ------- 2 8.0 2.0 0 8
- 1.212808 0 2 ack 40 ------- 2 8.0 2.0 0 8
r 1.217515 9 3 ack 40 ------- 1 7.0 1.0 2 9
+ 1.217515 3 0 ack 40 ------- 1 7.0 1.0 2 9
- 1.217515 3 0 ack 40 ------- 1 7.0 1.0 2 9
r 1.222968 0 2 ack 40 ------- 2 8.0 2.0 0 8
+ 1.222968 2 0 tcp 95 ------- 2 2.0 8.0 1 12
- 1.222968 2 0 tcp 95 ------- 2 2.0 8.0 1 12
+ 1.222968 2 0 tcp 95 ------- 2 2.0 8.0 2 13
- 1.223348 2 0 tcp 95 ------- 2 2.0 8.0 2 13
r 1.233348 2 0 tcp 95 ------- 2 2.0 8.0 1 12
+ 1.233348 0 3 tcp 95 ------- 2 2.0 8.0 1 12
- 1.233348 0 3 tcp 95 ------- 2 2.0 8.0 1 12
r 1.233547 9 3 ack 40 ------- 1 7.0 1.0 3 10
+ 1.233547 3 0 ack 40 ------- 1 7.0 1.0 3 10
- 1.233547 3 0 ack 40 ------- 1 7.0 1.0 3 10
r 1.233728 2 0 tcp 95 ------- 2 2.0 8.0 2 13
+ 1.233728 0 3 tcp 95 ------- 2 2.0 8.0 2 13
- 1.234108 0 3 tcp 95 ------- 2 2.0 8.0 2 13
r 1.237835 3 0 ack 40 ------- 1 7.0 1.0 2 9
+ 1.237835 0 1 ack 40 ------- 1 7.0 1.0 2 9
- 1.237835 0 1 ack 40 ------- 1 7.0 1.0 2 9
r 1.247995 0 1 ack 40 ------- 1 7.0 1.0 2 9
+ 1.247995 1 0 tcp 1000 ------- 1 1.0 7.0 5 14
- 1.247995 1 0 tcp 1000 ------- 1 1.0 7.0 5 14
r 1.249578 9 3 ack 40 ------- 1 7.0 1.0 4 11
+ 1.249578 3 0 ack 40 ------- 1 7.0 1.0 4 11
- 1.249578 3 0 ack 40 ------- 1 7.0 1.0 4 11
r 1.253867 3 0 ack 40 ------- 1 7.0 1.0 3 10
+ 1.253867 0 1 ack 40 ------- 1 7.0 1.0 3 10
- 1.253867 0 1 ack 40 ------- 1 7.0 1.0 3 10
r 1.254108 0 3 tcp 95 ------- 2 2.0 8.0 1 12
h 1.254108 3 9 tcp 95 ------- 2 2.0 8.0 1 12
r 1.254868 0 3 tcp 95 ------- 2 2.0 8.0 2 13
h 1.254868 3 9 tcp 95 ------- 2 2.0 8.0 2 13
r 1.261995 1 0 tcp 1000 ------- 1 1.0 7.0 5 14
+ 1.261995 0 3 tcp 1000 ------- 1 1.0 7.0 5 14
- 1.261995 0 3 tcp 1000 ------- 1 1.0 7.0 5 14
r 1.264027 0 1 ack 40 ------- 1 7.0 1.0 3 10
+ 1.264027 1 0 tcp 1000 ------- 1 1.0 7.0 6 15
- 1.264027 1 0 tcp 1000 ------- 1 1.0 7.0 6 15
r 1.269898 3 0 ack 40 ------- 1 7.0 1.0 4 11
+ 1.269898 0 1 ack 40 ------- 1 7.0 1.0 4 11
- 1.269898 0 1 ack 40 ------- 1 7.0 1.0 4 11
r 1.278027 1 0 tcp 1000 ------- 1 1.0 7.0 6 15
+ 1.278027 0 3 tcp 1000 ------- 1 1.0 7.0 6 15
- 1.278027 0 3 tcp 1000 ------- 1 1.0 7.0 6 15
r 1.280058 0 1 ack 40 ------- 1 7.0 1.0 4 11
+ 1.280058 1 0 tcp 1000 ------- 1 1.0 7.0 7 16
- 1.280058 1 0 tcp 1000 ------- 1 1.0 7.0 7 16
r 1.289995 0 3 tcp 1000 ------- 1 1.0 7.0 5 14
h 1.289995 3 9 tcp 1000 ------- 1 1.0 7.0 5 14
r 1.294058 1 0 tcp 1000 ------- 1 1.0 7.0 7 16
+ 1.294058 0 3 tcp 1000 ------- 1 1.0 7.0 7 16
- 1.294058 0 3 tcp 1000 ------- 1 1.0 7.0 7 16
+ 1.294108 3 9 tcp 95 ------- 2 2.0 8.0 1 12
- 1.294108 3 9 tcp 95 ------- 2 2.0 8.0 1 12
+ 1.294868 3 9 tcp 95 ------- 2 2.0 8.0 2 13
- 1.295999 3 9 tcp 95 ------- 2 2.0 8.0 2 13
r 1.306027 0 3 tcp 1000 ------- 1 1.0 7.0 6 15
h 1.306027 3 9 tcp 1000 ------- 1 1.0 7.0 6 15
r 1.322058 0 3 tcp 1000 ------- 1 1.0 7.0 7 16
h 1.322058 3 9 tcp 1000 ------- 1 1.0 7.0 7 16
+ 1.329995 3 9 tcp 1000 ------- 1 1.0 7.0 5 14
- 1.329995 3 9 tcp 1000 ------- 1 1.0 7.0 5 14
r 1.335815 9 8 tcp 95 ------- 2 2.0 8.0 1 12
h 1.335815 8 9 ack 40 ------- 2 8.0 2.0 1 17
r 1.337706 9 8 tcp 95 ------- 2 2.0 8.0 2 13
h 1.337706 8 9 ack 40 ------- 2 8.0 2.0 2 18
+ 1.346027 3 9 tcp 1000 ------- 1 1.0 7.0 6 15
- 1.346027 3 9 tcp 1000 ------- 1 1.0 7.0 6 15
+ 1.362058 3 9 tcp 1000 ------- 1 1.0 7.0 7 16
- 1.362058 3 9 tcp 1000 ------- 1 1.0 7.0 7 16
+ 1.375815 8 9 ack 40 ------- 2 8.0 2.0 1 17
- 1.375815 8 9 ack 40 ------- 2 8.0 2.0 1 17
+ 1.377706 8 9 ack 40 ------- 2 8.0 2.0 2 18
- 1.37928 8 9 ack 40 ------- 2 8.0 2.0 2 18
r 1.385843 9 7 tcp 1000 ------- 1 1.0 7.0 5 14
h 1.385843 7 9 ack 40 ------- 1 7.0 1.0 5 19
r 1.401874 9 7 tcp 1000 ------- 1 1.0 7.0 6 15
h 1.401874 7 9 ack 40 ------- 1 7.0 1.0 6 20
r 1.417905 9 7 tcp 1000 ------- 1 1.0 7.0 7 16
h 1.417905 7 9 ack 40 ------- 1 7.0 1.0 7 21
r 1.419097 9 3 ack 40 ------- 2 8.0 2.0 1 17
+ 1.419097 3 0 ack 40 ------- 2 8.0 2.0 1 17
- 1.419097 3 0 ack 40 ------- 2 8.0 2.0 1 17
r 1.420284 9 3 ack 40 ------- 2 8.0 2.0 2 18
+ 1.420284 3 0 ack 40 ------- 2 8.0 2.0 2 18
- 1.420284 3 0 ack 40 ------- 2 8.0 2.0 2 18
+ 1.425843 7 9 ack 40 ------- 1 7.0 1.0 5 19
- 1.425843 7 9 ack 40 ------- 1 7.0 1.0 5 19
r 1.439417 3 0 ack 40 ------- 2 8.0 2.0 1 17
+ 1.439417 0 2 ack 40 ------- 2 8.0 2.0 1 17
- 1.439417 0 2 ack 40 ------- 2 8.0 2.0 1 17
r 1.440604 3 0 ack 40 ------- 2 8.0 2.0 2 18
+ 1.440604 0 2 ack 40 ------- 2 8.0 2.0 2 18
- 1.440604 0 2 ack 40 ------- 2 8.0 2.0 2 18
+ 1.441874 7 9 ack 40 ------- 1 7.0 1.0 6 20
- 1.441874 7 9 ack 40 ------- 1 7.0 1.0 6 20
r 1.449577 0 2 ack 40 ------- 2 8.0 2.0 1 17
+ 1.449577 2 0 tcp 95 ------- 2 2.0 8.0 3 22
- 1.449577 2 0 tcp 95 ------- 2 2.0 8.0 3 22
+ 1.449577 2 0 tcp 95 ------- 2 2.0 8.0 4 23
- 1.449957 2 0 tcp 95 ------- 2 2.0 8.0 4 23
r 1.450764 0 2 ack 40 ------- 2 8.0 2.0 2 18
+ 1.450764 2 0 tcp 95 ------- 2 2.0 8.0 5 24
- 1.450764 2 0 tcp 95 ------- 2 2.0 8.0 5 24
+ 1.450764 2 0 tcp 95 ------- 2 2.0 8.0 6 25
- 1.451144 2 0 tcp 95 ------- 2 2.0 8.0 6 25
+ 1.457905 7 9 ack 40 ------- 1 7.0 1.0 7 21
- 1.457905 7 9 ack 40 ------- 1 7.0 1.0 7 21
r 1.459957 2 0 tcp 95 ------- 2 2.0 8.0 3 22
+ 1.459957 0 3 tcp 95 ------- 2 2.0 8.0 3 22
- 1.459957 0 3 tcp 95 ------- 2 2.0 8.0 3 22
r 1.460337 2 0 tcp 95 ------- 2 2.0 8.0 4 23
+ 1.460337 0 3 tcp 95 ------- 2 2.0 8.0 4 23
- 1.460717 0 3 tcp 95 ------- 2 2.0 8.0 4 23
r 1.461144 2 0 tcp 95 ------- 2 2.0 8.0 5 24
+ 1.461144 0 3 tcp 95 ------- 2 2.0 8.0 5 24
- 1.461477 0 3 tcp 95 ------- 2 2.0 8.0 5 24
r 1.461524 2 0 tcp 95 ------- 2 2.0 8.0 6 25
+ 1.461524 0 3 tcp 95 ------- 2 2.0 8.0 6 25
- 1.462237 0 3 tcp 95 ------- 2 2.0 8.0 6 25
r 1.466847 9 3 ack 40 ------- 1 7.0 1.0 5 19
+ 1.466847 3 0 ack 40 ------- 1 7.0 1.0 5 19
- 1.466847 3 0 ack 40 ------- 1 7.0 1.0 5 19
r 1.480717 0 3 tcp 95 ------- 2 2.0 8.0 3 22
h 1.480717 3 9 tcp 95 ------- 2 2.0 8.0 3 22
r 1.481477 0 3 tcp 95 ------- 2 2.0 8.0 4 23
h 1.481477 3 9 tcp 95 ------- 2 2.0 8.0 4 23
r 1.482237 0 3 tcp 95 ------- 2 2.0 8.0 5 24
h 1.482237 3 9 tcp 95 ------- 2 2.0 8.0 5 24
r 1.482878 9 3 ack 40 ------- 1 7.0 1.0 6 20
+ 1.482878 3 0 ack 40 ------- 1 7.0 1.0 6 20
- 1.482878 3 0 ack 40 ------- 1 7.0 1.0 6 20
r 1.482997 0 3 tcp 95 ------- 2 2.0 8.0 6 25
h 1.482997 3 9 tcp 95 ------- 2 2.0 8.0 6 25
r 1.487167 3 0 ack 40 ------- 1 7.0 1.0 5 19
+ 1.487167 0 1 ack 40 ------- 1 7.0 1.0 5 19
- 1.487167 0 1 ack 40 ------- 1 7.0 1.0 5 19
r 1.497327 0 1 ack 40 ------- 1 7.0 1.0 5 19
+ 1.497327 1 0 tcp 1000 ------- 1 1.0 7.0 8 26
- 1.497327 1 0 tcp 1000 ------- 1 1.0 7.0 8 26
+ 1.497327 1 0 tcp 1000 ------- 1 1.0 7.0 9 27
r 1.498909 9 3 ack 40 ------- 1 7.0 1.0 7 21
+ 1.498909 3 0 ack 40 ------- 1 7.0 1.0 7 21
- 1.498909 3 0 ack 40 ------- 1 7.0 1.0 7 21
- 1.501327 1 0 tcp 1000 ------- 1 1.0 7.0 9 27
r 1.503198 3 0 ack 40 ------- 1 7.0 1.0 6 20
+ 1.503198 0 1 ack 40 ------- 1 7.0 1.0 6 20
- 1.503198 0 1 ack 40 ------- 1 7.0 1.0 6 20
r 1.511327 1 0 tcp 1000 ------- 1 1.0 7.0 8 26
+ 1.511327 0 3 tcp 1000 ------- 1 1.0 7.0 8 26
- 1.511327 0 3 tcp 1000 ------- 1 1.0 7.0 8 26
r 1.513358 0 1 ack 40 ------- 1 7.0 1.0 6 20
+ 1.513358 1 0 tcp 1000 ------- 1 1.0 7.0 10 28
- 1.513358 1 0 tcp 1000 ------- 1 1.0 7.0 10 28
+ 1.513358 1 0 tcp 1000 ------- 1 1.0 7.0 11 29
r 1.515327 1 0 tcp 1000 ------- 1 1.0 7.0 9 27
+ 1.515327 0 3 tcp 1000 ------- 1 1.0 7.0 9 27
- 1.517358 1 0 tcp 1000 ------- 1 1.0 7.0 11 29
r 1.519229 3 0 ack 40 ------- 1 7.0 1.0 7 21
+ 1.519229 0 1 ack 40 ------- 1 7.0 1.0 7 21
- 1.519229 0 1 ack 40 ------- 1 7.0 1.0 7 21
- 1.519327 0 3 tcp 1000 ------- 1 1.0 7.0 9 27
+ 1.520717 3 9 tcp 95 ------- 2 2.0 8.0 3 22
- 1.520717 3 9 tcp 95 ------- 2 2.0 8.0 3 22
+ 1.521477 3 9 tcp 95 ------- 2 2.0 8.0 4 23
+ 1.522237 3 9 tcp 95 ------- 2 2.0 8.0 5 24
- 1.522608 3 9 tcp 95 ------- 2 2.0 8.0 4 23
+ 1.522997 3 9 tcp 95 ------- 2 2.0 8.0 6 25
- 1.524498 3 9 tcp 95 ------- 2 2.0 8.0 5 24
- 1.526389 3 9 tcp 95 ------- 2 2.0 8.0 6 25
r 1.527358 1 0 tcp 1000 ------- 1 1.0 7.0 10 28
+ 1.527358 0 3 tcp 1000 ------- 1 1.0 7.0 10 28
- 1.527358 0 3 tcp 1000 ------- 1 1.0 7.0 10 28
r 1.529389 0 1 ack 40 ------- 1 7.0 1.0 7 21
+ 1.529389 1 0 tcp 1000 ------- 1 1.0 7.0 12 30
- 1.529389 1 0 tcp 1000 ------- 1 1.0 7.0 12 30
+ 1.529389 1 0 tcp 1000 ------- 1 1.0 7.0 13 31
r 1.531358 1 0 tcp 1000 ------- 1 1.0 7.0 11 29
+ 1.531358 0 3 tcp 1000 ------- 1 1.0 7.0 11 29
- 1.533389 1 0 tcp 1000 ------- 1 1.0 7.0 13 31
- 1.535358 0 3 tcp 1000 ------- 1 1.0 7.0 11 29
r 1.539327 0 3 tcp 1000 ------- 1 1.0 7.0 8 26
h 1.539327 3 9 tcp 1000 ------- 1 1.0 7.0 8 26
r 1.543389 1 0 tcp 1000 ------- 1 1.0 7.0 12 30
+ 1.543389 0 3 tcp 1000 ------- 1 1.0 7.0 12 30
- 1.543389 0 3 tcp 1000 ------- 1 1.0 7.0 12 30
r 1.547327 0 3 tcp 1000 ------- 1 1.0 7.0 9 27
h 1.547327 3 9 tcp 1000 ------- 1 1.0 7.0 9 27
r 1.547389 1 0 tcp 1000 ------- 1 1.0 7.0 13 31
+ 1.547389 0 3 tcp 1000 ------- 1 1.0 7.0 13 31
- 1.551389 0 3 tcp 1000 ------- 1 1.0 7.0 13 31
r 1.555358 0 3 tcp 1000 ------- 1 1.0 7.0 10 28
h 1.555358 3 9 tcp 1000 ------- 1 1.0 7.0 10 28
r 1.562424 9 8 tcp 95 ------- 2 2.0 8.0 3 22
h 1.562424 8 9 ack 40 ------- 2 8.0 2.0 3 32
r 1.563358 0 3 tcp 1000 ------- 1 1.0 7.0 11 29
h 1.563358 3 9 tcp 1000 ------- 1 1.0 7.0 11 29
r 1.564315 9 8 tcp 95 ------- 2 2.0 8.0 4 23
h 1.564315 8 9 ack 40 ------- 2 8.0 2.0 4 33
r 1.566205 9 8 tcp 95 ------- 2 2.0 8.0 5 24
h 1.566205 8 9 ack 40 ------- 2 8.0 2.0 5 34
r 1.568096 9 8 tcp 95 ------- 2 2.0 8.0 6 25
h 1.568096 8 9 ack 40 ------- 2 8.0 2.0 6 35
r 1.571389 0 3 tcp 1000 ------- 1 1.0 7.0 12 30
h 1.571389 3 9 tcp 1000 ------- 1 1.0 7.0 12 30
+ 1.579327 3 9 tcp 1000 ------- 1 1.0 7.0 8 26
- 1.579327 3 9 tcp 1000 ------- 1 1.0 7.0 8 26
r 1.579389 0 3 tcp 1000 ------- 1 1.0 7.0 13 31
h 1.579389 3 9 tcp 1000 ------- 1 1.0 7.0 13 31
+ 1.587327 3 9 tcp 1000 ------- 1 1.0 7.0 9 27
+ 1.595358 3 9 tcp 1000 ------- 1 1.0 7.0 10 28
- 1.595358 3 9 tcp 1000 ------- 1 1.0 7.0 9 27
+ 1.602424 8 9 ack 40 ------- 2 8.0 2.0 3 32
- 1.602424 8 9 ack 40 ------- 2 8.0 2.0 3 32
+ 1.603358 3 9 tcp 1000 ------- 1 1.0 7.0 11 29
+ 1.604315 8 9 ack 40 ------- 2 8.0 2.0 4 33
+ 1.606205 8 9 ack 40 ------- 2 8.0 2.0 5 34
+ 1.608096 8 9 ack 40 ------- 2 8.0 2.0 6 35
+ 1.611389 3 9 tcp 1000 ------- 1 1.0 7.0 12 30
- 1.611389 3 9 tcp 1000 ------- 1 1.0 7.0 10 28
- 1.612831 8 9 ack 40 ------- 2 8.0 2.0 4 33
- 1.615526 8 9 ack 40 ------- 2 8.0 2.0 5 34
- 1.616714 8 9 ack 40 ------- 2 8.0 2.0 6 35
+ 1.619389 3 9 tcp 1000 ------- 1 1.0 7.0 13 31
r 1.635175 9 7 tcp 1000 ------- 1 1.0 7.0 8 26
h 1.635175 7 9 ack 40 ------- 1 7.0 1.0 8 36
- 1.636374 3 9 tcp 1000 ------- 1 1.0 7.0 11 29
r 1.651206 9 7 tcp 1000 ------- 1 1.0 7.0 9 27
h 1.651206 7 9 ack 40 ------- 1 7.0 1.0 9 37
- 1.652405 3 9 tcp 1000 ------- 1 1.0 7.0 12 30
r 1.652647 9 3 ack 40 ------- 2 8.0 2.0 3 32
+ 1.652647 3 0 ack 40 ------- 2 8.0 2.0 3 32
- 1.652647 3 0 ack 40 ------- 2 8.0 2.0 3 32
r 1.655343 9 3 ack 40 ------- 2 8.0 2.0 4 33
+ 1.655343 3 0 ack 40 ------- 2 8.0 2.0 4 33
- 1.655343 3 0 ack 40 ------- 2 8.0 2.0 4 33
r 1.65653 9 3 ack 40 ------- 2 8.0 2.0 5 34
+ 1.65653 3 0 ack 40 ------- 2 8.0 2.0 5 34
- 1.65653 3 0 ack 40 ------- 2 8.0 2.0 5 34
r 1.657718 9 3 ack 40 ------- 2 8.0 2.0 6 35
+ 1.657718 3 0 ack 40 ------- 2 8.0 2.0 6 35
- 1.657718 3 0 ack 40 ------- 2 8.0 2.0 6 35
- 1.668437 3 9 tcp 1000 ------- 1 1.0 7.0 13 31
r 1.672967 3 0 ack 40 ------- 2 8.0 2.0 3 32
+ 1.672967 0 2 ack 40 ------- 2 8.0 2.0 3 32
- 1.672967 0 2 ack 40 ------- 2 8.0 2.0 3 32
+ 1.675175 7 9 ack 40 ------- 1 7.0 1.0 8 36
- 1.675175 7 9 ack 40 ------- 1 7.0 1.0 8 36
r 1.675663 3 0 ack 40 ------- 2 8.0 2.0 4 33
+ 1.675663 0 2 ack 40 ------- 2 8.0 2.0 4 33
- 1.675663 0 2 ack 40 ------- 2 8.0 2.0 4 33
r 1.676191 9 7 tcp 1000 ------- 1 1.0 7.0 10 28
h 1.676191 7 9 ack 40 ------- 1 7.0 1.0 10 38
r 1.67685 3 0 ack 40 ------- 2 8.0 2.0 5 34
+ 1.67685 0 2 ack 40 ------- 2 8.0 2.0 5 34
- 1.67685 0 2 ack 40 ------- 2 8.0 2.0 5 34
r 1.678038 3 0 ack 40 ------- 2 8.0 2.0 6 35
+ 1.678038 0 2 ack 40 ------- 2 8.0 2.0 6 35
- 1.678038 0 2 ack 40 ------- 2 8.0 2.0 6 35
r 1.683127 0 2 ack 40 ------- 2 8.0 2.0 3 32
+ 1.683127 2 0 tcp 95 ------- 2 2.0 8.0 7 39
- 1.683127 2 0 tcp 95 ------- 2 2.0 8.0 7 39
+ 1.683127 2 0 tcp 95 ------- 2 2.0 8.0 8 40
- 1.683507 2 0 tcp 95 ------- 2 2.0 8.0 8 40
r 1.685823 0 2 ack 40 ------- 2 8.0 2.0 4 33
+ 1.685823 2 0 tcp 95 ------- 2 2.0 8.0 9 41
- 1.685823 2 0 tcp 95 ------- 2 2.0 8.0 9 41
+ 1.685823 2 0 tcp 95 ------- 2 2.0 8.0 10 42
- 1.686203 2 0 tcp 95 ------- 2 2.0 8.0 10 42
r 1.68701 0 2 ack 40 ------- 2 8.0 2.0 5 34
+ 1.68701 2 0 tcp 95 ------- 2 2.0 8.0 11 43
- 1.68701 2 0 tcp 95 ------- 2 2.0 8.0 11 43
+ 1.68701 2 0 tcp 95 ------- 2 2.0 8.0 12 44
- 1.68739 2 0 tcp 95 ------- 2 2.0 8.0 12 44
r 1.688198 0 2 ack 40 ------- 2 8.0 2.0 6 35
+ 1.688198 2 0 tcp 95 ------- 2 2.0 8.0 13 45
- 1.688198 2 0 tcp 95 ------- 2 2.0 8.0 13 45
+ 1.688198 2 0 tcp 95 ------- 2 2.0 8.0 14 46
- 1.688578 2 0 tcp 95 ------- 2 2.0 8.0 14 46
+ 1.691206 7 9 ack 40 ------- 1 7.0 1.0 9 37
- 1.691206 7 9 ack 40 ------- 1 7.0 1.0 9 37
r 1.692222 9 7 tcp 1000 ------- 1 1.0 7.0 11 29
h 1.692222 7 9 ack 40 ------- 1 7.0 1.0 11 47
r 1.693507 2 0 tcp 95 ------- 2 2.0 8.0 7 39
+ 1.693507 0 3 tcp 95 ------- 2 2.0 8.0 7 39
- 1.693507 0 3 tcp 95 ------- 2 2.0 8.0 7 39
r 1.693887 2 0 tcp 95 ------- 2 2.0 8.0 8 40
+ 1.693887 0 3 tcp 95 ------- 2 2.0 8.0 8 40
- 1.694267 0 3 tcp 95 ------- 2 2.0 8.0 8 40
r 1.696203 2 0 tcp 95 ------- 2 2.0 8.0 9 41
+ 1.696203 0 3 tcp 95 ------- 2 2.0 8.0 9 41
- 1.696203 0 3 tcp 95 ------- 2 2.0 8.0 9 41
r 1.696583 2 0 tcp 95 ------- 2 2.0 8.0 10 42
+ 1.696583 0 3 tcp 95 ------- 2 2.0 8.0 10 42
- 1.696963 0 3 tcp 95 ------- 2 2.0 8.0 10 42
r 1.69739 2 0 tcp 95 ------- 2 2.0 8.0 11 43
+ 1.69739 0 3 tcp 95 ------- 2 2.0 8.0 11 43
- 1.697723 0 3 tcp 95 ------- 2 2.0 8.0 11 43
r 1.69777 2 0 tcp 95 ------- 2 2.0 8.0 12 44
+ 1.69777 0 3 tcp 95 ------- 2 2.0 8.0 12 44
- 1.698483 0 3 tcp 95 ------- 2 2.0 8.0 12 44
r 1.698578 2 0 tcp 95 ------- 2 2.0 8.0 13 45
+ 1.698578 0 3 tcp 95 ------- 2 2.0 8.0 13 45
r 1.698958 2 0 tcp 95 ------- 2 2.0 8.0 14 46
+ 1.698958 0 3 tcp 95 ------- 2 2.0 8.0 14 46
- 1.699243 0 3 tcp 95 ------- 2 2.0 8.0 13 45
- 1.700003 0 3 tcp 95 ------- 2 2.0 8.0 14 46
r 1.708253 9 7 tcp 1000 ------- 1 1.0 7.0 12 30
h 1.708253 7 9 ack 40 ------- 1 7.0 1.0 12 48
r 1.714267 0 3 tcp 95 ------- 2 2.0 8.0 7 39
h 1.714267 3 9 tcp 95 ------- 2 2.0 8.0 7 39
r 1.715027 0 3 tcp 95 ------- 2 2.0 8.0 8 40
h 1.715027 3 9 tcp 95 ------- 2 2.0 8.0 8 40
+ 1.716191 7 9 ack 40 ------- 1 7.0 1.0 10 38
- 1.716191 7 9 ack 40 ------- 1 7.0 1.0 10 38
r 1.716963 0 3 tcp 95 ------- 2 2.0 8.0 9 41
h 1.716963 3 9 tcp 95 ------- 2 2.0 8.0 9 41
r 1.717723 0 3 tcp 95 ------- 2 2.0 8.0 10 42
h 1.717723 3 9 tcp 95 ------- 2 2.0 8.0 10 42
r 1.718483 0 3 tcp 95 ------- 2 2.0 8.0 11 43
h 1.718483 3 9 tcp 95 ------- 2 2.0 8.0 11 43
r 1.719243 0 3 tcp 95 ------- 2 2.0 8.0 12 44
h 1.719243 3 9 tcp 95 ------- 2 2.0 8.0 12 44
r 1.720003 0 3 tcp 95 ------- 2 2.0 8.0 13 45
h 1.720003 3 9 tcp 95 ------- 2 2.0 8.0 13 45
r 1.720763 0 3 tcp 95 ------- 2 2.0 8.0 14 46
h 1.720763 3 9 tcp 95 ------- 2 2.0 8.0 14 46
r 1.724284 9 7 tcp 1000 ------- 1 1.0 7.0 13 31
h 1.724284 7 9 ack 40 ------- 1 7.0 1.0 13 49
r 1.725476 9 3 ack 40 ------- 1 7.0 1.0 8 36
+ 1.725476 3 0 ack 40 ------- 1 7.0 1.0 8 36
- 1.725476 3 0 ack 40 ------- 1 7.0 1.0 8 36
r 1.73221 9 3 ack 40 ------- 1 7.0 1.0 9 37
+ 1.73221 3 0 ack 40 ------- 1 7.0 1.0 9 37
- 1.73221 3 0 ack 40 ------- 1 7.0 1.0 9 37
+ 1.732222 7 9 ack 40 ------- 1 7.0 1.0 11 47
- 1.732222 7 9 ack 40 ------- 1 7.0 1.0 11 47
r 1.745796 3 0 ack 40 ------- 1 7.0 1.0 8 36
+ 1.745796 0 1 ack 40 ------- 1 7.0 1.0 8 36
- 1.745796 0 1 ack 40 ------- 1 7.0 1.0 8 36
+ 1.748253 7 9 ack 40 ------- 1 7.0 1.0 12 48
- 1.748253 7 9 ack 40 ------- 1 7.0 1.0 12 48
r 1.75253 3 0 ack 40 ------- 1 7.0 1.0 9 37
+ 1.75253 0 1 ack 40 ------- 1 7.0 1.0 9 37
- 1.75253 0 1 ack 40 ------- 1 7.0 1.0 9 37
+ 1.754267 3 9 tcp 95 ------- 2 2.0 8.0 7 39
- 1.754267 3 9 tcp 95 ------- 2 2.0 8.0 7 39
+ 1.755027 3 9 tcp 95 ------- 2 2.0 8.0 8 40
r 1.755956 0 1 ack 40 ------- 1 7.0 1.0 8 36
+ 1.755956 1 0 tcp 1000 ------- 1 1.0 7.0 14 50
- 1.755956 1 0 tcp 1000 ------- 1 1.0 7.0 14 50
- 1.756158 3 9 tcp 95 ------- 2 2.0 8.0 8 40
+ 1.756963 3 9 tcp 95 ------- 2 2.0 8.0 9 41
r 1.757195 9 3 ack 40 ------- 1 7.0 1.0 10 38
+ 1.757195 3 0 ack 40 ------- 1 7.0 1.0 10 38
- 1.757195 3 0 ack 40 ------- 1 7.0 1.0 10 38
+ 1.757723 3 9 tcp 95 ------- 2 2.0 8.0 10 42
- 1.758049 3 9 tcp 95 ------- 2 2.0 8.0 9 41
+ 1.758483 3 9 tcp 95 ------- 2 2.0 8.0 11 43
+ 1.759243 3 9 tcp 95 ------- 2 2.0 8.0 12 44
- 1.759939 3 9 tcp 95 ------- 2 2.0 8.0 10 42
+ 1.760003 3 9 tcp 95 ------- 2 2.0 8.0 13 45
+ 1.760763 3 9 tcp 95 ------- 2 2.0 8.0 14 46
- 1.76183 3 9 tcp 95 ------- 2 2.0 8.0 11 43
r 1.76269 0 1 ack 40 ------- 1 7.0 1.0 9 37
+ 1.76269 1 0 tcp 1000 ------- 1 1.0 7.0 15 51
- 1.76269 1 0 tcp 1000 ------- 1 1.0 7.0 15 51
- 1.763721 3 9 tcp 95 ------- 2 2.0 8.0 12 44
+ 1.764284 7 9 ack 40 ------- 1 7.0 1.0 13 49
- 1.764284 7 9 ack 40 ------- 1 7.0 1.0 13 49
- 1.765611 3 9 tcp 95 ------- 2 2.0 8.0 13 45
- 1.76776 3 9 tcp 95 ------- 2 2.0 8.0 14 46
r 1.769956 1 0 tcp 1000 ------- 1 1.0 7.0 14 50
+ 1.769956 0 3 tcp 1000 ------- 1 1.0 7.0 14 50
- 1.769956 0 3 tcp 1000 ------- 1 1.0 7.0 14 50
r 1.773226 9 3 ack 40 ------- 1 7.0 1.0 11 47
+ 1.773226 3 0 ack 40 ------- 1 7.0 1.0 11 47
- 1.773226 3 0 ack 40 ------- 1 7.0 1.0 11 47
r 1.77669 1 0 tcp 1000 ------- 1 1.0 7.0 15 51
+ 1.77669 0 3 tcp 1000 ------- 1 1.0 7.0 15 51
r 1.777515 3 0 ack 40 ------- 1 7.0 1.0 10 38
+ 1.777515 0 1 ack 40 ------- 1 7.0 1.0 10 38
- 1.777515 0 1 ack 40 ------- 1 7.0 1.0 10 38
- 1.777956 0 3 tcp 1000 ------- 1 1.0 7.0 15 51
r 1.787675 0 1 ack 40 ------- 1 7.0 1.0 10 38
+ 1.787675 1 0 tcp 1000 ------- 1 1.0 7.0 16 52
- 1.787675 1 0 tcp 1000 ------- 1 1.0 7.0 16 52
r 1.789257 9 3 ack 40 ------- 1 7.0 1.0 12 48
+ 1.789257 3 0 ack 40 ------- 1 7.0 1.0 12 48
- 1.789257 3 0 ack 40 ------- 1 7.0 1.0 12 48
r 1.793546 3 0 ack 40 ------- 1 7.0 1.0 11 47
+ 1.793546 0 1 ack 40 ------- 1 7.0 1.0 11 47
- 1.793546 0 1 ack 40 ------- 1 7.0 1.0 11 47
r 1.795975 9 8 tcp 95 ------- 2 2.0 8.0 7 39
h 1.795975 8 9 ack 40 ------- 2 8.0 2.0 7 53
r 1.797865 9 8 tcp 95 ------- 2 2.0 8.0 8 40
h 1.797865 8 9 ack 40 ------- 2 8.0 2.0 8 54
r 1.797956 0 3 tcp 1000 ------- 1 1.0 7.0 14 50
h 1.797956 3 9 tcp 1000 ------- 1 1.0 7.0 14 50
r 1.799756 9 8 tcp 95 ------- 2 2.0 8.0 9 41
h 1.799756 8 9 ack 40 ------- 2 8.0 2.0 9 55
r 1.801646 9 8 tcp 95 ------- 2 2.0 8.0 10 42
h 1.801646 8 9 ack 40 ------- 2 8.0 2.0 10 56
r 1.801675 1 0 tcp 1000 ------- 1 1.0 7.0 16 52
+ 1.801675 0 3 tcp 1000 ------- 1 1.0 7.0 16 52
- 1.801675 0 3 tcp 1000 ------- 1 1.0 7.0 16 52
r 1.803537 9 8 tcp 95 ------- 2 2.0 8.0 11 43
h 1.803537 8 9 ack 40 ------- 2 8.0 2.0 11 57
r 1.803706 0 1 ack 40 ------- 1 7.0 1.0 11 47
+ 1.803706 1 0 tcp 1000 ------- 1 1.0 7.0 17 58
- 1.803706 1 0 tcp 1000 ------- 1 1.0 7.0 17 58
r 1.805428 9 8 tcp 95 ------- 2 2.0 8.0 12 44
h 1.805428 8 9 ack 40 ------- 2 8.0 2.0 12 59
r 1.805956 0 3 tcp 1000 ------- 1 1.0 7.0 15 51
h 1.805956 3 9 tcp 1000 ------- 1 1.0 7.0 15 51
r 1.807576 9 8 tcp 95 ------- 2 2.0 8.0 13 45
h 1.807576 8 9 ack 40 ------- 2 8.0 2.0 13 60
r 1.809018 9 3 ack 40 ------- 1 7.0 1.0 13 49
+ 1.809018 3 0 ack 40 ------- 1 7.0 1.0 13 49
- 1.809018 3 0 ack 40 ------- 1 7.0 1.0 13 49
r 1.809577 3 0 ack 40 ------- 1 7.0 1.0 12 48
+ 1.809577 0 1 ack 40 ------- 1 7.0 1.0 12 48
- 1.809577 0 1 ack 40 ------- 1 7.0 1.0 12 48
r 1.810912 9 8 tcp 95 ------- 2 2.0 8.0 14 46
h 1.810912 8 9 ack 40 ------- 2 8.0 2.0 14 61
r 1.817706 1 0 tcp 1000 ------- 1 1.0 7.0 17 58
+ 1.817706 0 3 tcp 1000 ------- 1 1.0 7.0 17 58
- 1.817706 0 3 tcp 1000 ------- 1 1.0 7.0 17 58
r 1.819737 0 1 ack 40 ------- 1 7.0 1.0 12 48
+ 1.819737 1 0 tcp 1000 ------- 1 1.0 7.0 18 62
- 1.819737 1 0 tcp 1000 ------- 1 1.0 7.0 18 62
r 1.829338 3 0 ack 40 ------- 1 7.0 1.0 13 49
+ 1.829338 0 1 ack 40 ------- 1 7.0 1.0 13 49
- 1.829338 0 1 ack 40 ------- 1 7.0 1.0 13 49
r 1.829675 0 3 tcp 1000 ------- 1 1.0 7.0 16 52
h 1.829675 3 9 tcp 1000 ------- 1 1.0 7.0 16 52
r 1.833737 1 0 tcp 1000 ------- 1 1.0 7.0 18 62
+ 1.833737 0 3 tcp 1000 ------- 1 1.0 7.0 18 62
- 1.833737 0 3 tcp 1000 ------- 1 1.0 7.0 18 62
+ 1.835975 8 9 ack 40 ------- 2 8.0 2.0 7 53
- 1.835975 8 9 ack 40 ------- 2 8.0 2.0 7 53
+ 1.837865 8 9 ack 40 ------- 2 8.0 2.0 8 54
- 1.837865 8 9 ack 40 ------- 2 8.0 2.0 8 54
+ 1.837956 3 9 tcp 1000 ------- 1 1.0 7.0 14 50
- 1.837956 3 9 tcp 1000 ------- 1 1.0 7.0 14 50
r 1.839498 0 1 ack 40 ------- 1 7.0 1.0 13 49
+ 1.839498 1 0 tcp 1000 ------- 1 1.0 7.0 19 63
- 1.839498 1 0 tcp 1000 ------- 1 1.0 7.0 19 63
+ 1.839756 8 9 ack 40 ------- 2 8.0 2.0 9 55
- 1.839756 8 9 ack 40 ------- 2 8.0 2.0 9 55
+ 1.841646 8 9 ack 40 ------- 2 8.0 2.0 10 56
+ 1.843537 8 9 ack 40 ------- 2 8.0 2.0 11 57
+ 1.845428 8 9 ack 40 ------- 2 8.0 2.0 12 59
r 1.845706 0 3 tcp 1000 ------- 1 1.0 7.0 17 58
h 1.845706 3 9 tcp 1000 ------- 1 1.0 7.0 17 58
+ 1.845956 3 9 tcp 1000 ------- 1 1.0 7.0 15 51
+ 1.847576 8 9 ack 40 ------- 2 8.0 2.0 13 60
+ 1.850912 8 9 ack 40 ------- 2 8.0 2.0 14 61
r 1.853498 1 0 tcp 1000 ------- 1 1.0 7.0 19 63
+ 1.853498 0 3 tcp 1000 ------- 1 1.0 7.0 19 63
- 1.853498 0 3 tcp 1000 ------- 1 1.0 7.0 19 63
- 1.855088 3 9 tcp 1000 ------- 1 1.0 7.0 15 51
- 1.856529 8 9 ack 40 ------- 2 8.0 2.0 10 56
- 1.857975 8 9 ack 40 ------- 2 8.0 2.0 11 57
- 1.85942 8 9 ack 40 ------- 2 8.0 2.0 12 59
- 1.860608 8 9 ack 40 ------- 2 8.0 2.0 13 60
r 1.861737 0 3 tcp 1000 ------- 1 1.0 7.0 18 62
h 1.861737 3 9 tcp 1000 ------- 1 1.0 7.0 18 62
- 1.865303 8 9 ack 40 ------- 2 8.0 2.0 14 61
+ 1.869675 3 9 tcp 1000 ------- 1 1.0 7.0 16 52
r 1.876979 9 3 ack 40 ------- 2 8.0 2.0 7 53
+ 1.876979 3 0 ack 40 ------- 2 8.0 2.0 7 53
- 1.876979 3 0 ack 40 ------- 2 8.0 2.0 7 53
r 1.878869 9 3 ack 40 ------- 2 8.0 2.0 8 54
+ 1.878869 3 0 ack 40 ------- 2 8.0 2.0 8 54
- 1.878869 3 0 ack 40 ------- 2 8.0 2.0 8 54
r 1.881498 0 3 tcp 1000 ------- 1 1.0 7.0 19 63
h 1.881498 3 9 tcp 1000 ------- 1 1.0 7.0 19 63
+ 1.885706 3 9 tcp 1000 ------- 1 1.0 7.0 17 58
- 1.891151 3 9 tcp 1000 ------- 1 1.0 7.0 16 52
r 1.894904 9 7 tcp 1000 ------- 1 1.0 7.0 14 50
h 1.894904 7 9 ack 40 ------- 1 7.0 1.0 14 64
r 1.896346 9 3 ack 40 ------- 2 8.0 2.0 9 55
+ 1.896346 3 0 ack 40 ------- 2 8.0 2.0 9 55
- 1.896346 3 0 ack 40 ------- 2 8.0 2.0 9 55
r 1.897299 3 0 ack 40 ------- 2 8.0 2.0 7 53
+ 1.897299 0 2 ack 40 ------- 2 8.0 2.0 7 53
- 1.897299 0 2 ack 40 ------- 2 8.0 2.0 7 53
r 1.897791 9 3 ack 40 ------- 2 8.0 2.0 10 56
+ 1.897791 3 0 ack 40 ------- 2 8.0 2.0 10 56
- 1.897791 3 0 ack 40 ------- 2 8.0 2.0 10 56
r 1.899189 3 0 ack 40 ------- 2 8.0 2.0 8 54
+ 1.899189 0 2 ack 40 ------- 2 8.0 2.0 8 54
- 1.899189 0 2 ack 40 ------- 2 8.0 2.0 8 54
r 1.899237 9 3 ack 40 ------- 2 8.0 2.0 11 57
+ 1.899237 3 0 ack 40 ------- 2 8.0 2.0 11 57
- 1.899237 3 0 ack 40 ------- 2 8.0 2.0 11 57
r 1.900424 9 3 ack 40 ------- 2 8.0 2.0 12 59
+ 1.900424 3 0 ack 40 ------- 2 8.0 2.0 12 59
- 1.900424 3 0 ack 40 ------- 2 8.0 2.0 12 59
+ 1.901737 3 9 tcp 1000 ------- 1 1.0 7.0 18 62
r 1.90512 9 3 ack 40 ------- 2 8.0 2.0 13 60
+ 1.90512 3 0 ack 40 ------- 2 8.0 2.0 13 60
- 1.90512 3 0 ack 40 ------- 2 8.0 2.0 13 60
r 1.906307 9 3 ack 40 ------- 2 8.0 2.0 14 61
+ 1.906307 3 0 ack 40 ------- 2 8.0 2.0 14 61
- 1.906307 3 0 ack 40 ------- 2 8.0 2.0 14 61
- 1.907182 3 9 tcp 1000 ------- 1 1.0 7.0 17 58
r 1.907459 0 2 ack 40 ------- 2 8.0 2.0 7 53
+ 1.907459 2 0 tcp 95 ------- 2 2.0 8.0 15 65
- 1.907459 2 0 tcp 95 ------- 2 2.0 8.0 15 65
+ 1.907459 2 0 tcp 95 ------- 2 2.0 8.0 16 66
- 1.907839 2 0 tcp 95 ------- 2 2.0 8.0 16 66
r 1.909349 0 2 ack 40 ------- 2 8.0 2.0 8 54
+ 1.909349 2 0 tcp 95 ------- 2 2.0 8.0 17 67
- 1.909349 2 0 tcp 95 ------- 2 2.0 8.0 17 67
+ 1.909349 2 0 tcp 95 ------- 2 2.0 8.0 18 68
- 1.909729 2 0 tcp 95 ------- 2 2.0 8.0 18 68
r 1.916666 3 0 ack 40 ------- 2 8.0 2.0 9 55
+ 1.916666 0 2 ack 40 ------- 2 8.0 2.0 9 55
- 1.916666 0 2 ack 40 ------- 2 8.0 2.0 9 55
r 1.917839 2 0 tcp 95 ------- 2 2.0 8.0 15 65
+ 1.917839 0 3 tcp 95 ------- 2 2.0 8.0 15 65
- 1.917839 0 3 tcp 95 ------- 2 2.0 8.0 15 65
r 1.918111 3 0 ack 40 ------- 2 8.0 2.0 10 56
+ 1.918111 0 2 ack 40 ------- 2 8.0 2.0 10 56
- 1.918111 0 2 ack 40 ------- 2 8.0 2.0 10 56
r 1.918219 2 0 tcp 95 ------- 2 2.0 8.0 16 66
+ 1.918219 0 3 tcp 95 ------- 2 2.0 8.0 16 66
- 1.918599 0 3 tcp 95 ------- 2 2.0 8.0 16 66
r 1.919557 3 0 ack 40 ------- 2 8.0 2.0 11 57
+ 1.919557 0 2 ack 40 ------- 2 8.0 2.0 11 57
- 1.919557 0 2 ack 40 ------- 2 8.0 2.0 11 57
r 1.919729 2 0 tcp 95 ------- 2 2.0 8.0 17 67
+ 1.919729 0 3 tcp 95 ------- 2 2.0 8.0 17 67
- 1.919729 0 3 tcp 95 ------- 2 2.0 8.0 17 67
r 1.920109 2 0 tcp 95 ------- 2 2.0 8.0 18 68
+ 1.920109 0 3 tcp 95 ------- 2 2.0 8.0 18 68
- 1.920489 0 3 tcp 95 ------- 2 2.0 8.0 18 68
r 1.920744 3 0 ack 40 ------- 2 8.0 2.0 12 59
+ 1.920744 0 2 ack 40 ------- 2 8.0 2.0 12 59
- 1.920744 0 2 ack 40 ------- 2 8.0 2.0 12 59
+ 1.921498 3 9 tcp 1000 ------- 1 1.0 7.0 19 63
- 1.923214 3 9 tcp 1000 ------- 1 1.0 7.0 18 62
r 1.92544 3 0 ack 40 ------- 2 8.0 2.0 13 60
+ 1.92544 0 2 ack 40 ------- 2 8.0 2.0 13 60
- 1.92544 0 2 ack 40 ------- 2 8.0 2.0 13 60
r 1.926627 3 0 ack 40 ------- 2 8.0 2.0 14 61
+ 1.926627 0 2 ack 40 ------- 2 8.0 2.0 14 61
- 1.926627 0 2 ack 40 ------- 2 8.0 2.0 14 61
r 1.926826 0 2 ack 40 ------- 2 8.0 2.0 9 55
+ 1.926826 2 0 tcp 95 ------- 2 2.0 8.0 19 69
- 1.926826 2 0 tcp 95 ------- 2 2.0 8.0 19 69
+ 1.926826 2 0 tcp 95 ------- 2 2.0 8.0 20 70
- 1.927206 2 0 tcp 95 ------- 2 2.0 8.0 20 70
r 1.928271 0 2 ack 40 ------- 2 8.0 2.0 10 56
+ 1.928271 2 0 tcp 95 ------- 2 2.0 8.0 21 71