V -t * -v 1.0a5 -a 0
A -t * -n 1 -p 0 -o 0x7fffffff -c 30 -a 1
A -t * -h 1 -m 1073741823 -s 0
c -t * -i 1 -n Blue
c -t * -i 2 -n Red
n -t * -a 8 -s 8 -S UP -v hexagon -c Red -i Red
n -t * -a 4 -s 4 -S UP -v circle -c black -i black
n -t * -a 0 -s 0 -S UP -v circle -c black -i black
n -t * -a 5 -s 5 -S UP -v circle -c black -i black
n -t * -a 1 -s 1 -S UP -v circle -c black -i black
n -t * -a 6 -s 6 -S UP -v circle -c black -i black
n -t * -a 2 -s 2 -S UP -v circle -c black -i black
n -t * -a 7 -s 7 -S UP -v box -c Blue -i Blue
n -t * -a 3 -s 3 -S UP -v circle -c black -i black
l -t * -s 1 -d 0 -S UP -r 2000000 -D 0.01 -c black -o right-down
l -t * -s 2 -d 0 -S UP -r 2000000 -D 0.01 -c black -o right-up
l -t * -s 0 -d 3 -S UP -r 1000000 -D 0.02 -c black -o right
X -t * -n 9 -r 512Kb -D 40ms -o left
L -t * -s 9 -d 3 -o up
L -t * -s 9 -d 4 -o down
L -t * -s 9 -d 5 -o up
L -t * -s 9 -d 6 -o down
L -t * -s 9 -d 7 -o up
L -t * -s 9 -d 8 -o down
+ -t 0.5 -s 1 -d 0 -p tcp -e 1000 -c 1 -i 0 -a 1 -x {1.0 7.0 0 ------- null}
- -t 0.5 -s 1 -d 0 -p tcp -e 1000 -c 1 -i 0 -a 1 -x {1.0 7.0 0 ------- null}
h -t 0.5 -s 1 -d 0 -p tcp -e 1000 -c 1 -i 0 -a 1 -x {1.0 7.0 -1 ------- null}
r -t 0.514 -s 1 -d 0 -p tcp -e 1000 -c 1 -i 0 -a 1 -x {1.0 7.0 0 ------- null}
+ -t 0.514 -s 0 -d 3 -p tcp -e 1000 -c 1 -i 0 -a 1 -x {1.0 7.0 0 ------- null}
- -t 0.514 -s 0 -d 3 -p tcp -e 1000 -c 1 -i 0 -a 1 -x {1.0 7.0 0 ------- null}
h -t 0.514 -s 0 -d 3 -p tcp -e 1000 -c 1 -i 0 -a 1 -x {1.0 7.0 -1 ------- null}
r -t 0.542 -s 0 -d 3 -p tcp -e 1000 -c 1 -i 0 -a 1 -x {1.0 7.0 0 ------- null}
h -t 0.542 -s 3 -d 9 -p tcp -e 1000 -c 1 -i 0 -a 1 -x {1.0 7.0 0 ------- null}
+ -t 0.582 -s 3 -d 9 -p tcp -e 1000 -c 1 -i 0 -a 1 -x {1.0 7.0 0 ------- null}
- -t 0.582 -s 3 -d 9 -p tcp -e 1000 -c 1 -i 0 -a 1 -x {1.0 7.0 0 ------- null}
h -t 0.582 -s 3 -d 9 -p tcp -e 1000 -c 1 -i 0 -a 1 -x {1.0 7.0 -1 ------- null}
r -t 0.63784775 -s 9 -d 7 -p tcp -e 1000 -c 1 -i 0 -a 1 -x {1.0 7.0 0 ------- null}
h -t 0.63784775 -s 7 -d 9 -p ack -e 40 -c 1 -i 1 -a 1 -x {7.0 1.0 0 ------- null}
+ -t 0.67784775 -s 7 -d 9 -p ack -e 40 -c 1 -i 1 -a 1 -x {7.0 1.0 0 ------- null}
- -t 0.67784775 -s 7 -d 9 -p ack -e 40 -c 1 -i 1 -a 1 -x {7.0 1.0 0 ------- null}
h -t 0.67784775 -s 7 -d 9 -p ack -e 40 -c 1 -i 1 -a 1 -x {7.0 1.0 -1 ------- null}
r -t 0.71885175 -s 9 -d 3 -p ack -e 40 -c 1 -i 1 -a 1 -x {7.0 1.0 0 ------- null}
+ -t 0.71885175 -s 3 -d 0 -p ack -e 40 -c 1 -i 1 -a 1 -x {7.0 1.0 0 ------- null}
- -t 0.71885175 -s 3 -d 0 -p ack -e 40 -c 1 -i 1 -a 1 -x {7.0 1.0 0 ------- null}
h -t 0.71885175 -s 3 -d 0 -p ack -e 40 -c 1 -i 1 -a 1 -x {7.0 1.0 -1 ------- null}
r -t 0.73917175 -s 3 -d 0 -p ack -e 40 -c 1 -i 1 -a 1 -x {7.0 1.0 0 ------- null}
+ -t 0.73917175 -s 0 -d 1 -p ack -e 40 -c 1 -i 1 -a 1 -x {7.0 1.0 0 ------- null}
- -t 0.73917175 -s 0 -d 1 -p ack -e 40 -c 1 -i 1 -a 1 -x {7.0 1.0 0 ------- null}
h -t 0.73917175 -s 0 -d 1 -p ack -e 40 -c 1 -i 1 -a 1 -x {7.0 1.0 -1 ------- null}
r -t 0.74933175 -s 0 -d 1 -p ack -e 40 -c 1 -i 1 -a 1 -x {7.0 1.0 0 ------- null}
+ -t 0.74933175 -s 1 -d 0 -p tcp -e 1000 -c 1 -i 2 -a 1 -x {1.0 7.0 1 ------- null}
- -t 0.74933175 -s 1 -d 0 -p tcp -e 1000 -c 1 -i 2 -a 1 -x {1.0 7.0 1 ------- null}
h -t 0.74933175 -s 1 -d 0 -p tcp -e 1000 -c 1 -i 2 -a 1 -x {1.0 7.0 -1 ------- null}
r -t 0.76333175 -s 1 -d 0 -p tcp -e 1000 -c 1 -i 2 -a 1 -x {1.0 7.0 1 ------- null}
+ -t 0.76333175 -s 0 -d 3 -p tcp -e 1000 -c 1 -i 2 -a 1 -x {1.0 7.0 1 ------- null}
- -t 0.76333175 -s 0 -d 3 -p tcp -e 1000 -c 1 -i 2 -a 1 -x {1.0 7.0 1 ------- null}
h -t 0.76333175 -s 0 -d 3 -p tcp -e 1000 -c 1 -i 2 -a 1 -x {1.0 7.0 -1 ------- null}
r -t 0.79133175 -s 0 -d 3 -p tcp -e 1000 -c 1 -i 2 -a 1 -x {1.0 7.0 1 ------- null}
h -t 0.79133175 -s 3 -d 9 -p tcp -e 1000 -c 1 -i 2 -a 1 -x {1.0 7.0 1 ------- null}
+ -t 0.83133175 -s 3 -d 9 -p tcp -e 1000 -c 1 -i 2 -a 1 -x {1.0 7.0 1 ------- null}
- -t 0.83133175 -s 3 -d 9 -p tcp -e 1000 -c 1 -i 2 -a 1 -x {1.0 7.0 1 ------- null}
h -t 0.83133175 -s 3 -d 9 -p tcp -e 1000 -c 1 -i 2 -a 1 -x {1.0 7.0 -1 ------- null}
r -t 0.8871795 -s 9 -d 7 -p tcp -e 1000 -c 1 -i 2 -a 1 -x {1.0 7.0 1 ------- null}
h -t 0.8871795 -s 7 -d 9 -p ack -e 40 -c 1 -i 3 -a 1 -x {7.0 1.0 1 ------- null}
+ -t 0.9271795 -s 7 -d 9 -p ack -e 40 -c 1 -i 3 -a 1 -x {7.0 1.0 1 ------- null}
- -t 0.9271795 -s 7 -d 9 -p ack -e 40 -c 1 -i 3 -a 1 -x {7.0 1.0 1 ------- null}
h -t 0.9271795 -s 7 -d 9 -p ack -e 40 -c 1 -i 3 -a 1 -x {7.0 1.0 -1 ------- null}
r -t 0.9681835 -s 9 -d 3 -p ack -e 40 -c 1 -i 3 -a 1 -x {7.0 1.0 1 ------- null}
+ -t 0.9681835 -s 3 -d 0 -p ack -e 40 -c 1 -i 3 -a 1 -x {7.0 1.0 1 ------- null}
- -t 0.9681835 -s 3 -d 0 -p ack -e 40 -c 1 -i 3 -a 1 -x {7.0 1.0 1 ------- null}
h -t 0.9681835 -s 3 -d 0 -p ack -e 40 -c 1 -i 3 -a 1 -x {7.0 1.0 -1 ------- null}
r -t 0.9885035 -s 3 -d 0 -p ack -e 40 -c 1 -i 3 -a 1 -x {7.0 1.0 1 ------- null}
+ -t 0.9885035 -s 0 -d 1 -p ack -e 40 -c 1 -i 3 -a 1 -x {7.0 1.0 1 ------- null}
- -t 0.9885035 -s 0 -d 1 -p ack -e 40 -c 1 -i 3 -a 1 -x {7.0 1.0 1 ------- null}
h -t 0.9885035 -s 0 -d 1 -p ack -e 40 -c 1 -i 3 -a 1 -x {7.0 1.0 -1 ------- null}
r -t 0.9986635 -s 0 -d 1 -p ack -e 40 -c 1 -i 3 -a 1 -x {7.0 1.0 1 ------- null}
+ -t 0.9986635 -s 1 -d 0 -p tcp -e 1000 -c 1 -i 4 -a 1 -x {1.0 7.0 2 ------- null}
- -t 0.9986635 -s 1 -d 0 -p tcp -e 1000 -c 1 -i 4 -a 1 -x {1.0 7.0 2 ------- null}
h -t 0.9986635 -s 1 -d 0 -p tcp -e 1000 -c 1 -i 4 -a 1 -x {1.0 7.0 -1 ------- null}
+ -t 0.9986635 -s 1 -d 0 -p tcp -e 1000 -c 1 -i 5 -a 1 -x {1.0 7.0 3 ------- null}
+ -t 0.9986635 -s 1 -d 0 -p tcp -e 1000 -c 1 -i 6 -a 1 -x {1.0 7.0 4 ------- null}
+ -t 1 -s 2 -d 0 -p tcp -e 40 -c 2 -i 7 -a 2 -x {2.0 8.0 0 ------- null}
- -t 1 -s 2 -d 0 -p tcp -e 40 -c 2 -i 7 -a 2 -x {2.0 8.0 0 ------- null}
h -t 1 -s 2 -d 0 -p tcp -e 40 -c 2 -i 7 -a 2 -x {2.0 8.0 -1 ------- null}
- -t 1.0026635 -s 1 -d 0 -p tcp -e 1000 -c 1 -i 5 -a 1 -x {1.0 7.0 3 ------- null}
h -t 1.0026635 -s 1 -d 0 -p tcp -e 1000 -c 1 -i 5 -a 1 -x {1.0 7.0 -1 ------- null}
- -t 1.0066635 -s 1 -d 0 -p tcp -e 1000 -c 1 -i 6 -a 1 -x {1.0 7.0 4 ------- null}
h -t 1.0066635 -s 1 -d 0 -p tcp -e 1000 -c 1 -i 6 -a 1 -x {1.0 7.0 -1 ------- null}
r -t 1.01016 -s 2 -d 0 -p tcp -e 40 -c 2 -i 7 -a 2 -x {2.0 8.0 0 ------- null}
+ -t 1.01016 -s 0 -d 3 -p tcp -e 40 -c 2 -i 7 -a 2 -x {2.0 8.0 0 ------- null}
- -t 1.01016 -s 0 -d 3 -p tcp -e 40 -c 2 -i 7 -a 2 -x {2.0 8.0 0 ------- null}
h -t 1.01016 -s 0 -d 3 -p tcp -e 40 -c 2 -i 7 -a 2 -x {2.0 8.0 -1 ------- null}
r -t 1.0126635 -s 1 -d 0 -p tcp -e 1000 -c 1 -i 4 -a 1 -x {1.0 7.0 2 ------- null}
+ -t 1.0126635 -s 0 -d 3 -p tcp -e 1000 -c 1 -i 4 -a 1 -x {1.0 7.0 2 ------- null}
- -t 1.0126635 -s 0 -d 3 -p tcp -e 1000 -c 1 -i 4 -a 1 -x {1.0 7.0 2 ------- null}
h -t 1.0126635 -s 0 -d 3 -p tcp -e 1000 -c 1 -i 4 -a 1 -x {1.0 7.0 -1 ------- null}
r -t 1.0166635 -s 1 -d 0 -p tcp -e 1000 -c 1 -i 5 -a 1 -x {1.0 7.0 3 ------- null}
+ -t 1.0166635 -s 0 -d 3 -p tcp -e 1000 -c 1 -i 5 -a 1 -x {1.0 7.0 3 ------- null}
r -t 1.0206635 -s 1 -d 0 -p tcp -e 1000 -c 1 -i 6 -a 1 -x {1.0 7.0 4 ------- null}
+ -t 1.0206635 -s 0 -d 3 -p tcp -e 1000 -c 1 -i 6 -a 1 -x {1.0 7.0 4 ------- null}
- -t 1.0206635 -s 0 -d 3 -p tcp -e 1000 -c 1 -i 5 -a 1 -x {1.0 7.0 3 ------- null}
h -t 1.0206635 -s 0 -d 3 -p tcp -e 1000 -c 1 -i 5 -a 1 -x {1.0 7.0 -1 ------- null}
- -t 1.0286635 -s 0 -d 3 -p tcp -e 1000 -c 1 -i 6 -a 1 -x {1.0 7.0 4 ------- null}
h -t 1.0286635 -s 0 -d 3 -p tcp -e 1000 -c 1 -i 6 -a 1 -x {1.0 7.0 -1 ------- null}
r -t 1.03048 -s 0 -d 3 -p tcp -e 40 -c 2 -i 7 -a 2 -x {2.0 8.0 0 ------- null}
h -t 1.03048 -s 3 -d 9 -p tcp -e 40 -c 2 -i 7 -a 2 -x {2.0 8.0 0 ------- null}
r -t 1.0406635 -s 0 -d 3 -p tcp -e 1000 -c 1 -i 4 -a 1 -x {1.0 7.0 2 ------- null}
h -t 1.0406635 -s 3 -d 9 -p tcp -e 1000 -c 1 -i 4 -a 1 -x {1.0 7.0 2 ------- null}
r -t 1.0486635 -s 0 -d 3 -p tcp -e 1000 -c 1 -i 5 -a 1 -x {1.0 7.0 3 ------- null}
h -t 1.0486635 -s 3 -d 9 -p tcp -e 1000 -c 1 -i 5 -a 1 -x {1.0 7.0 3 ------- null}
r -t 1.0566635 -s 0 -d 3 -p tcp -e 1000 -c 1 -i 6 -a 1 -x {1.0 7.0 4 ------- null}
h -t 1.0566635 -s 3 -d 9 -p tcp -e 1000 -c 1 -i 6 -a 1 -x {1.0 7.0 4 ------- null}
+ -t 1.07048 -s 3 -d 9 -p tcp -e 40 -c 2 -i 7 -a 2 -x {2.0 8.0 0 ------- null}
- -t 1.07048 -s 3 -d 9 -p tcp -e 40 -c 2 -i 7 -a 2 -x {2.0 8.0 0 ------- null}
h -t 1.07048 -s 3 -d 9 -p tcp -e 40 -c 2 -i 7 -a 2 -x {2.0 8.0 -1 ------- null}
+ -t 1.0806635 -s 3 -d 9 -p tcp -e 1000 -c 1 -i 4 -a 1 -x {1.0 7.0 2 ------- null}
- -t 1.0806635 -s 3 -d 9 -p tcp -e 1000 -c 1 -i 4 -a 1 -x {1.0 7.0 2 ------- null}
h -t 1.0806635 -s 3 -d 9 -p tcp -e 1000 -c 1 -i 4 -a 1 -x {1.0 7.0 -1 ------- null}
+ -t 1.0886635 -s 3 -d 9 -p tcp -e 1000 -c 1 -i 5 -a 1 -x {1.0 7.0 3 ------- null}
+ -t 1.0966635 -s 3 -d 9 -p tcp -e 1000 -c 1 -i 6 -a 1 -x {1.0 7.0 4 ------- null}
- -t 1.09669475 -s 3 -d 9 -p tcp -e 1000 -c 1 -i 5 -a 1 -x {1.0 7.0 3 ------- null}
h -t 1.09669475 -s 3 -d 9 -p tcp -e 1000 -c 1 -i 5 -a 1 -x {1.0 7.0 -1 ------- null}
r -t 1.111484 -s 9 -d 8 -p tcp -e 40 -c 2 -i 7 -a 2 -x {2.0 8.0 0 ------- null}
h -t 1.111484 -s 8 -d 9 -p ack -e 40 -c 2 -i 8 -a 2 -x {8.0 2.0 0 ------- null}
- -t 1.112726 -s 3 -d 9 -p tcp -e 1000 -c 1 -i 6 -a 1 -x {1.0 7.0 4 ------- null}
h -t 1.112726 -s 3 -d 9 -p tcp -e 1000 -c 1 -i 6 -a 1 -x {1.0 7.0 -1 ------- null}
r -t 1.13651125 -s 9 -d 7 -p tcp -e 1000 -c 1 -i 4 -a 1 -x {1.0 7.0 2 ------- null}
h -t 1.13651125 -s 7 -d 9 -p ack -e 40 -c 1 -i 9 -a 1 -x {7.0 1.0 2 ------- null}
+ -t 1.151484 -s 8 -d 9 -p ack -e 40 -c 2 -i 8 -a 2 -x {8.0 2.0 0 ------- null}
- -t 1.151484 -s 8 -d 9 -p ack -e 40 -c 2 -i 8 -a 2 -x {8.0 2.0 0 ------- null}
h -t 1.151484 -s 8 -d 9 -p ack -e 40 -c 2 -i 8 -a 2 -x {8.0 2.0 -1 ------- null}
r -t 1.1525425 -s 9 -d 7 -p tcp -e 1000 -c 1 -i 5 -a 1 -x {1.0 7.0 3 ------- null}
h -t 1.1525425 -s 7 -d 9 -p ack -e 40 -c 1 -i 10 -a 1 -x {7.0 1.0 3 ------- null}
r -t 1.16857375 -s 9 -d 7 -p tcp -e 1000 -c 1 -i 6 -a 1 -x {1.0 7.0 4 ------- null}
h -t 1.16857375 -s 7 -d 9 -p ack -e 40 -c 1 -i 11 -a 1 -x {7.0 1.0 4 ------- null}
+ -t 1.17651125 -s 7 -d 9 -p ack -e 40 -c 1 -i 9 -a 1 -x {7.0 1.0 2 ------- null}
- -t 1.17651125 -s 7 -d 9 -p ack -e 40 -c 1 -i 9 -a 1 -x {7.0 1.0 2 ------- null}
h -t 1.17651125 -s 7 -d 9 -p ack -e 40 -c 1 -i 9 -a 1 -x {7.0 1.0 -1 ------- null}
r -t 1.192488 -s 9 -d 3 -p ack -e 40 -c 2 -i 8 -a 2 -x {8.0 2.0 0 ------- null}
+ -t 1.192488 -s 3 -d 0 -p ack -e 40 -c 2 -i 8 -a 2 -x {8.0 2.0 0 ------- null}
- -t 1.192488 -s 3 -d 0 -p ack -e 40 -c 2 -i 8 -a 2 -x {8.0 2.0 0 ------- null}
h -t 1.192488 -s 3 -d 0 -p ack -e 40 -c 2 -i 8 -a 2 -x {8.0 2.0 -1 ------- null}
+ -t 1.1925425 -s 7 -d 9 -p ack -e 40 -c 1 -i 10 -a 1 -x {7.0 1.0 3 ------- null}
- -t 1.1925425 -s 7 -d 9 -p ack -e 40 -c 1 -i 10 -a 1 -x {7.0 1.0 3 ------- null}
h -t 1.1925425 -s 7 -d 9 -p ack -e 40 -c 1 -i 10 -a 1 -x {7.0 1.0 -1 ------- null}
+ -t 1.20857375 -s 7 -d 9 -p ack -e 40 -c 1 -i 11 -a 1 -x {7.0 1.0 4 ------- null}
- -t 1.20857375 -s 7 -d 9 -p ack -e 40 -c 1 -i 11 -a 1 -x {7.0 1.0 4 ------- null}
h -t 1.20857375 -s 7 -d 9 -p ack -e 40 -c 1 -i 11 -a 1 -x {7.0 1.0 -1 ------- null}
r -t 1.212808 -s 3 -d 0 -p ack -e 40 -c 2 -i 8 -a 2 -x {8.0 2.0 0 ------- null}
+ -t 1.212808 -s 0 -d 2 -p ack -e 40 -c 2 -i 8 -a 2 -x {8.0 2.0 0 ------- null}
- -t 1.212808 -s 0 -d 2 -p ack -e 40 -c 2 -i 8 -a 2 -x {8.0 2.0 0 ------- null}
h -t 1.212808 -s 0 -d 2 -p ack -e 40 -c 2 -i 8 -a 2 -x {8.0 2.0 -1 ------- null}
r -t 1.21751525 -s 9 -d 3 -p ack -e 40 -c 1 -i 9 -a 1 -x {7.0 1.0 2 ------- null}
+ -t 1.21751525 -s 3 -d 0 -p ack -e 40 -c 1 -i 9 -a 1 -x {7.0 1.0 2 ------- null}
- -t 1.21751525 -s 3 -d 0 -p ack -e 40 -c 1 -i 9 -a 1 -x {7.0 1.0 2 ------- null}
h -t 1.21751525 -s 3 -d 0 -p ack -e 40 -c 1 -i 9 -a 1 -x {7.0 1.0 -1 ------- null}
r -t 1.222968 -s 0 -d 2 -p ack -e 40 -c 2 -i 8 -a 2 -x {8.0 2.0 0 ------- null}
+ -t 1.222968 -s 2 -d 0 -p tcp -e 95 -c 2 -i 12 -a 2 -x {2.0 8.0 1 ------- null}
- -t 1.222968 -s 2 -d 0 -p tcp -e 95 -c 2 -i 12 -a 2 -x {2.0 8.0 1 ------- null}
h -t 1.222968 -s 2 -d 0 -p tcp -e 95 -c 2 -i 12 -a 2 -x {2.0 8.0 -1 ------- null}
+ -t 1.222968 -s 2 -d 0 -p tcp -e 95 -c 2 -i 13 -a 2 -x {2.0 8.0 2 ------- null}
- -t 1.223348 -s 2 -d 0 -p tcp -e 95 -c 2 -i 13 -a 2 -x {2.0 8.0 2 ------- null}
h -t 1.223348 -s 2 -d 0 -p tcp -e 95 -c 2 -i 13 -a 2 -x {2.0 8.0 -1 ------- null}
r -t 1.233348 -s 2 -d 0 -p tcp -e 95 -c 2 -i 12 -a 2 -x {2.0 8.0 1 ------- null}
+ -t 1.233348 -s 0 -d 3 -p tcp -e 95 -c 2 -i 12 -a 2 -x {2.0 8.0 1 ------- null}
- -t 1.233348 -s 0 -d 3 -p tcp -e 95 -c 2 -i 12 -a 2 -x {2.0 8.0 1 ------- null}
h -t 1.233348 -s 0 -d 3 -p tcp -e 95 -c 2 -i 12 -a 2 -x {2.0 8.0 -1 ------- null}
r -t 1.2335465 -s 9 -d 3 -p ack -e 40 -c 1 -i 10 -a 1 -x {7.0 1.0 3 ------- null}
+ -t 1.2335465 -s 3 -d 0 -p ack -e 40 -c 1 -i 10 -a 1 -x {7.0 1.0 3 ------- null}
- -t 1.2335465 -s 3 -d 0 -p ack -e 40 -c 1 -i 10 -a 1 -x {7.0 1.0 3 ------- null}
h -t 1.2335465 -s 3 -d 0 -p ack -e 40 -c 1 -i 10 -a 1 -x {7.0 1.0 -1 ------- null}
r -t 1.233728 -s 2 -d 0 -p tcp -e 95 -c 2 -i 13 -a 2 -x {2.0 8.0 2 ------- null}
+ -t 1.233728 -s 0 -d 3 -p tcp -e 95 -c 2 -i 13 -a 2 -x {2.0 8.0 2 ------- null}
- -t 1.234108 -s 0 -d 3 -p tcp -e 95 -c 2 -i 13 -a 2 -x {2.0 8.0 2 ------- null}
h -t 1.234108 -s 0 -d 3 -p tcp -e 95 -c 2 -i 13 -a 2 -x {2.0 8.0 -1 ------- null}
r -t 1.23783525 -s 3 -d 0 -p ack -e 40 -c 1 -i 9 -a 1 -x {7.0 1.0 2 ------- null}
+ -t 1.23783525 -s 0 -d 1 -p ack -e 40 -c 1 -i 9 -a 1 -x {7.0 1.0 2 ------- null}
- -t 1.23783525 -s 0 -d 1 -p ack -e 40 -c 1 -i 9 -a 1 -x {7.0 1.0 2 ------- null}
h -t 1.23783525 -s 0 -d 1 -p ack -e 40 -c 1 -i 9 -a 1 -x {7.0 1.0 -1 ------- null}
r -t 1.24799525 -s 0 -d 1 -p ack -e 40 -c 1 -i 9 -a 1 -x {7.0 1.0 2 ------- null}
+ -t 1.24799525 -s 1 -d 0 -p tcp -e 1000 -c 1 -i 14 -a 1 -x {1.0 7.0 5 ------- null}
- -t 1.24799525 -s 1 -d 0 -p tcp -e 1000 -c 1 -i 14 -a 1 -x {1.0 7.0 5 ------- null}
h -t 1.24799525 -s 1 -d 0 -p tcp -e 1000 -c 1 -i 14 -a 1 -x {1.0 7.0 -1 ------- null}
r -t 1.24957775 -s 9 -d 3 -p ack -e 40 -c 1 -i 11 -a 1 -x {7.0 1.0 4 ------- null}
+ -t 1.24957775 -s 3 -d 0 -p ack -e 40 -c 1 -i 11 -a 1 -x {7.0 1.0 4 ------- null}
- -t 1.24957775 -s 3 -d 0 -p ack -e 40 -c 1 -i 11 -a 1 -x {7.0 1.0 4 ------- null}
h -t 1.24957775 -s 3 -d 0 -p ack -e 40 -c 1 -i 11 -a 1 -x {7.0 1.0 -1 ------- null}
r -t 1.2538665 -s 3 -d 0 -p ack -e 40 -c 1 -i 10 -a 1 -x {7.0 1.0 3 ------- null}
+ -t 1.2538665 -s 0 -d 1 -p ack -e 40 -c 1 -i 10 -a 1 -x {7.0 1.0 3 ------- null}
- -t 1.2538665 -s 0 -d 1 -p ack -e 40 -c 1 -i 10 -a 1 -x {7.0 1.0 3 ------- null}
h -t 1.2538665 -s 0 -d 1 -p ack -e 40 -c 1 -i 10 -a 1 -x {7.0 1.0 -1 ------- null}
r -t 1.254108 -s 0 -d 3 -p tcp -e 95 -c 2 -i 12 -a 2 -x {2.0 8.0 1 ------- null}
h -t 1.254108 -s 3 -d 9 -p tcp -e 95 -c 2 -i 12 -a 2 -x {2.0 8.0 1 ------- null}
r -t 1.254868 -s 0 -d 3 -p tcp -e 95 -c 2 -i 13 -a 2 -x {2.0 8.0 2 ------- null}
h -t 1.254868 -s 3 -d 9 -p tcp -e 95 -c 2 -i 13 -a 2 -x {2.0 8.0 2 ------- null}
r -t 1.26199525 -s 1 -d 0 -p tcp -e 1000 -c 1 -i 14 -a 1 -x {1.0 7.0 5 ------- null}
+ -t 1.26199525 -s 0 -d 3 -p tcp -e 1000 -c 1 -i 14 -a 1 -x {1.0 7.0 5 ------- null}
- -t 1.26199525 -s 0 -d 3 -p tcp -e 1000 -c 1 -i 14 -a 1 -x {1.0 7.0 5 ------- null}
h -t 1.26199525 -s 0 -d 3 -p tcp -e 1000 -c 1 -i 14 -a 1 -x {1.0 7.0 -1 ------- null}
r -t 1.2640265 -s 0 -d 1 -p ack -e 40 -c 1 -i 10 -a 1 -x {7.0 1.0 3 ------- null}
+ -t 1.2640265 -s 1 -d 0 -p tcp -e 1000 -c 1 -i 15 -a 1 -x {1.0 7.0 6 ------- null}
- -t 1.2640265 -s 1 -d 0 -p tcp -e 1000 -c 1 -i 15 -a 1 -x {1.0 7.0 6 ------- null}
h -t 1.2640265 -s 1 -d 0 -p tcp -e 1000 -c 1 -i 15 -a 1 -x {1.0 7.0 -1 ------- null}
r -t 1.26989775 -s 3 -d 0 -p ack -e 40 -c 1 -i 11 -a 1 -x {7.0 1.0 4 ------- null}
+ -t 1.26989775 -s 0 -d 1 -p ack -e 40 -c 1 -i 11 -a 1 -x {7.0 1.0 4 ------- null}
- -t 1.26989775 -s 0 -d 1 -p ack -e 40 -c 1 -i 11 -a 1 -x {7.0 1.0 4 ------- null}
h -t 1.26989775 -s 0 -d 1 -p ack -e 40 -c 1 -i 11 -a 1 -x {7.0 1.0 -1 ------- null}
r -t 1.2780265 -s 1 -d 0 -p tcp -e 1000 -c 1 -i 15 -a 1 -x {1.0 7.0 6 ------- null}
+ -t 1.2780265 -s 0 -d 3 -p tcp -e 1000 -c 1 -i 15 -a 1 -x {1.0 7.0 6 ------- null}
- -t 1.2780265 -s 0 -d 3 -p tcp -e 1000 -c 1 -i 15 -a 1 -x {1.0 7.0 6 ------- null}
h -t 1.2780265 -s 0 -d 3 -p tcp -e 1000 -c 1 -i 15 -a 1 -x {1.0 7.0 -1 ------- null}
r -t 1.28005775 -s 0 -d 1 -p ack -e 40 -c 1 -i 11 -a 1 -x {7.0 1.0 4 ------- null}
+ -t 1.28005775 -s 1 -d 0 -p tcp -e 1000 -c 1 -i 16 -a 1 -x {1.0 7.0 7 ------- null}
- -t 1.28005775 -s 1 -d 0 -p tcp -e 1000 -c 1 -i 16 -a 1 -x {1.0 7.0 7 ------- null}
h -t 1.28005775 -s 1 -d 0 -p tcp -e 1000 -c 1 -i 16 -a 1 -x {1.0 7.0 -1 ------- null}
r -t 1.28999525 -s 0 -d 3 -p tcp -e 1000 -c 1 -i 14 -a 1 -x {1.0 7.0 5 ------- null}
h -t 1.28999525 -s 3 -d 9 -p tcp -e 1000 -c 1 -i 14 -a 1 -x {1.0 7.0 5 ------- null}
r -t 1.29405775 -s 1 -d 0 -p tcp -e 1000 -c 1 -i 16 -a 1 -x {1.0 7.0 7 ------- null}
+ -t 1.29405775 -s 0 -d 3 -p tcp -e 1000 -c 1 -i 16 -a 1 -x {1.0 7.0 7 ------- null}
- -t 1.29405775 -s 0 -d 3 -p tcp -e 1000 -c 1 -i 16 -a 1 -x {1.0 7.0 7 ------- null}
h -t 1.29405775 -s 0 -d 3 -p tcp -e 1000 -c 1 -i 16 -a 1 -x {1.0 7.0 -1 ------- null}
+ -t 1.294108 -s 3 -d 9 -p tcp -e 95 -c 2 -i 12 -a 2 -x {2.0 8.0 1 ------- null}
- -t 1.294108 -s 3 -d 9 -p tcp -e 95 -c 2 -i 12 -a 2 -x {2.0 8.0 1 ------- null}
h -t 1.294108 -s 3 -d 9 -p tcp -e 95 -c 2 -i 12 -a 2 -x {2.0 8.0 -1 ------- null}
+ -t 1.294868 -s 3 -d 9 -p tcp -e 95 -c 2 -i 13 -a 2 -x {2.0 8.0 2 ------- null}
- -t 1.295998625 -s 3 -d 9 -p tcp -e 95 -c 2 -i 13 -a 2 -x {2.0 8.0 2 ------- null}
h -t 1.295998625 -s 3 -d 9 -p tcp -e 95 -c 2 -i 13 -a 2 -x {2.0 8.0 -1 ------- null}
r -t 1.3060265 -s 0 -d 3 -p tcp -e 1000 -c 1 -i 15 -a 1 -x {1.0 7.0 6 ------- null}
h -t 1.3060265 -s 3 -d 9 -p tcp -e 1000 -c 1 -i 15 -a 1 -x {1.0 7.0 6 ------- null}
r -t 1.32205775 -s 0 -d 3 -p tcp -e 1000 -c 1 -i 16 -a 1 -x {1.0 7.0 7 ------- null}
h -t 1.32205775 -s 3 -d 9 -p tcp -e 1000 -c 1 -i 16 -a 1 -x {1.0 7.0 7 ------- null}
+ -t 1.32999525 -s 3 -d 9 -p tcp -e 1000 -c 1 -i 14 -a 1 -x {1.0 7.0 5 ------- null}
- -t 1.32999525 -s 3 -d 9 -p tcp -e 1000 -c 1 -i 14 -a 1 -x {1.0 7.0 5 ------- null}
h -t 1.32999525 -s 3 -d 9 -p tcp -e 1000 -c 1 -i 14 -a 1 -x {1.0 7.0 -1 ------- null}
r -t 1.335815125 -s 9 -d 8 -p tcp -e 95 -c 2 -i 12 -a 2 -x {2.0 8.0 1 ------- null}
h -t 1.335815125 -s 8 -d 9 -p ack -e 40 -c 2 -i 17 -a 2 -x {8.0 2.0 1 ------- null}
r -t 1.33770575 -s 9 -d 8 -p tcp -e 95 -c 2 -i 13 -a 2 -x {2.0 8.0 2 ------- null}
h -t 1.33770575 -s 8 -d 9 -p ack -e 40 -c 2 -i 18 -a 2 -x {8.0 2.0 2 ------- null}
+ -t 1.3460265 -s 3 -d 9 -p tcp -e 1000 -c 1 -i 15 -a 1 -x {1.0 7.0 6 ------- null}
- -t 1.3460265 -s 3 -d 9 -p tcp -e 1000 -c 1 -i 15 -a 1 -x {1.0 7.0 6 ------- null}
h -t 1.3460265 -s 3 -d 9 -p tcp -e 1000 -c 1 -i 15 -a 1 -x {1.0 7.0 -1 ------- null}
+ -t 1.36205775 -s 3 -d 9 -p tcp -e 1000 -c 1 -i 16 -a 1 -x {1.0 7.0 7 ------- null}
- -t 1.36205775 -s 3 -d 9 -p tcp -e 1000 -c 1 -i 16 -a 1 -x {1.0 7.0 7 ------- null}
h -t 1.36205775 -s 3 -d 9 -p tcp -e 1000 -c 1 -i 16 -a 1 -x {1.0 7.0 -1 ------- null}
+ -t 1.375815125 -s 8 -d 9 -p ack -e 40 -c 2 -i 17 -a 2 -x {8.0 2.0 1 ------- null}
- -t 1.375815125 -s 8 -d 9 -p ack -e 40 -c 2 -i 17 -a 2 -x {8.0 2.0 1 ------- null}
h -t 1.375815125 -s 8 -d 9 -p ack -e 40 -c 2 -i 17 -a 2 -x {8.0 2.0 -1 ------- null}
+ -t 1.37770575 -s 8 -d 9 -p ack -e 40 -c 2 -i 18 -a 2 -x {8.0 2.0 2 ------- null}
- -t 1.3792805 -s 8 -d 9 -p ack -e 40 -c 2 -i 18 -a 2 -x {8.0 2.0 2 ------- null}
h -t 1.3792805 -s 8 -d 9 -p ack -e 40 -c 2 -i 18 -a 2 -x {8.0 2.0 -1 ------- null}
r -t 1.385843 -s 9 -d 7 -p tcp -e 1000 -c 1 -i 14 -a 1 -x {1.0 7.0 5 ------- null}
h -t 1.385843 -s 7 -d 9 -p ack -e 40 -c 1 -i 19 -a 1 -x {7.0 1.0 5 ------- null}
r -t 1.40187425 -s 9 -d 7 -p tcp -e 1000 -c 1 -i 15 -a 1 -x {1.0 7.0 6 ------- null}
h -t 1.40187425 -s 7 -d 9 -p ack -e 40 -c 1 -i 20 -a 1 -x {7.0 1.0 6 ------- null}
r -t 1.4179055 -s 9 -d 7 -p tcp -e 1000 -c 1 -i 16 -a 1 -x {1.0 7.0 7 ------- null}
h -t 1.4179055 -s 7 -d 9 -p ack -e 40 -c 1 -i 21 -a 1 -x {7.0 1.0 7 ------- null}
r -t 1.419097 -s 9 -d 3 -p ack -e 40 -c 2 -i 17 -a 2 -x {8.0 2.0 1 ------- null}
+ -t 1.419097 -s 3 -d 0 -p ack -e 40 -c 2 -i 17 -a 2 -x {8.0 2.0 1 ------- null}
- -t 1.419097 -s 3 -d 0 -p ack -e 40 -c 2 -i 17 -a 2 -x {8.0 2.0 1 ------- null}
h -t 1.419097 -s 3 -d 0 -p ack -e 40 -c 2 -i 17 -a 2 -x {8.0 2.0 -1 ------- null}
r -t 1.4202845 -s 9 -d 3 -p ack -e 40 -c 2 -i 18 -a 2 -x {8.0 2.0 2 ------- null}
+ -t 1.4202845 -s 3 -d 0 -p ack -e 40 -c 2 -i 18 -a 2 -x {8.0 2.0 2 ------- null}
- -t 1.4202845 -s 3 -d 0 -p ack -e 40 -c 2 -i 18 -a 2 -x {8.0 2.0 2 ------- null}
h -t 1.4202845 -s 3 -d 0 -p ack -e 40 -c 2 -i 18 -a 2 -x {8.0 2.0 -1 ------- null}
+ -t 1.425843 -s 7 -d 9 -p ack -e 40 -c 1 -i 19 -a 1 -x {7.0 1.0 5 ------- null}
- -t 1.425843 -s 7 -d 9 -p ack -e 40 -c 1 -i 19 -a 1 -x {7.0 1.0 5 ------- null}
h -t 1.425843 -s 7 -d 9 -p ack -e 40 -c 1 -i 19 -a 1 -x {7.0 1.0 -1 ------- null}
r -t 1.439417 -s 3 -d 0 -p ack -e 40 -c 2 -i 17 -a 2 -x {8.0 2.0 1 ------- null}
+ -t 1.439417 -s 0 -d 2 -p ack -e 40 -c 2 -i 17 -a 2 -x {8.0 2.0 1 ------- null}
- -t 1.439417 -s 0 -d 2 -p ack -e 40 -c 2 -i 17 -a 2 -x {8.0 2.0 1 ------- null}
h -t 1.439417 -s 0 -d 2 -p ack -e 40 -c 2 -i 17 -a 2 -x {8.0 2.0 -1 ------- null}
r -t 1.4406045 -s 3 -d 0 -p ack -e 40 -c 2 -i 18 -a 2 -x {8.0 2.0 2 ------- null}
+ -t 1.4406045 -s 0 -d 2 -p ack -e 40 -c 2 -i 18 -a 2 -x {8.0 2.0 2 ------- null}
- -t 1.4406045 -s 0 -d 2 -p ack -e 40 -c 2 -i 18 -a 2 -x {8.0 2.0 2 ------- null}
h -t 1.4406045 -s 0 -d 2 -p ack -e 40 -c 2 -i 18 -a 2 -x {8.0 2.0 -1 ------- null}
+ -t 1.44187425 -s 7 -d 9 -p ack -e 40 -c 1 -i 20 -a 1 -x {7.0 1.0 6 ------- null}
- -t 1.44187425 -s 7 -d 9 -p ack -e 40 -c 1 -i 20 -a 1 -x {7.0 1.0 6 ------- null}
h -t 1.44187425 -s 7 -d 9 -p ack -e 40 -c 1 -i 20 -a 1 -x {7.0 1.0 -1 ------- null}
r -t 1.449577 -s 0 -d 2 -p ack -e 40 -c 2 -i 17 -a 2 -x {8.0 2.0 1 ------- null}
+ -t 1.449577 -s 2 -d 0 -p tcp -e 95 -c 2 -i 22 -a 2 -x {2.0 8.0 3 ------- null}
- -t 1.449577 -s 2 -d 0 -p tcp -e 95 -c 2 -i 22 -a 2 -x {2.0 8.0 3 ------- null}
h -t 1.449577 -s 2 -d 0 -p tcp -e 95 -c 2 -i 22 -a 2 -x {2.0 8.0 -1 ------- null}
+ -t 1.449577 -s 2 -d 0 -p tcp -e 95 -c 2 -i 23 -a 2 -x {2.0 8.0 4 ------- null}
- -t 1.449957 -s 2 -d 0 -p tcp -e 95 -c 2 -i 23 -a 2 -x {2.0 8.0 4 ------- null}
h -t 1.449957 -s 2 -d 0 -p tcp -e 95 -c 2 -i 23 -a 2 -x {2.0 8.0 -1 ------- null}
r -t 1.4507645 -s 0 -d 2 -p ack -e 40 -c 2 -i 18 -a 2 -x {8.0 2.0 2 ------- null}
+ -t 1.4507645 -s 2 -d 0 -p tcp -e 95 -c 2 -i 24 -a 2 -x {2.0 8.0 5 ------- null}
- -t 1.4507645 -s 2 -d 0 -p tcp -e 95 -c 2 -i 24 -a 2 -x {2.0 8.0 5 ------- null}
h -t 1.4507645 -s 2 -d 0 -p tcp -e 95 -c 2 -i 24 -a 2 -x {2.0 8.0 -1 ------- null}
+ -t 1.4507645 -s 2 -d 0 -p tcp -e 95 -c 2 -i 25 -a 2 -x {2.0 8.0 6 ------- null}
- -t 1.4511445 -s 2 -d 0 -p tcp -e 95 -c 2 -i 25 -a 2 -x {2.0 8.0 6 ------- null}
h -t 1.4511445 -s 2 -d 0 -p tcp -e 95 -c 2 -i 25 -a 2 -x {2.0 8.0 -1 ------- null}
+ -t 1.4579055 -s 7 -d 9 -p ack -e 40 -c 1 -i 21 -a 1 -x {7.0 1.0 7 ------- null}
- -t 1.4579055 -s 7 -d 9 -p ack -e 40 -c 1 -i 21 -a 1 -x {7.0 1.0 7 ------- null}
h -t 1.4579055 -s 7 -d 9 -p ack -e 40 -c 1 -i 21 -a 1 -x {7.0 1.0 -1 ------- null}
r -t 1.459957 -s 2 -d 0 -p tcp -e 95 -c 2 -i 22 -a 2 -x {2.0 8.0 3 ------- null}
+ -t 1.459957 -s 0 -d 3 -p tcp -e 95 -c 2 -i 22 -a 2 -x {2.0 8.0 3 ------- null}
- -t 1.459957 -s 0 -d 3 -p tcp -e 95 -c 2 -i 22 -a 2 -x {2.0 8.0 3 ------- null}
h -t 1.459957 -s 0 -d 3 -p tcp -e 95 -c 2 -i 22 -a 2 -x {2.0 8.0 -1 ------- null}
r -t 1.460337 -s 2 -d 0 -p tcp -e 95 -c 2 -i 23 -a 2 -x {2.0 8.0 4 ------- null}
+ -t 1.460337 -s 0 -d 3 -p tcp -e 95 -c 2 -i 23 -a 2 -x {2.0 8.0 4 ------- null}
- -t 1.460717 -s 0 -d 3 -p tcp -e 95 -c 2 -i 23 -a 2 -x {2.0 8.0 4 ------- null}
h -t 1.460717 -s 0 -d 3 -p tcp -e 95 -c 2 -i 23 -a 2 -x {2.0 8.0 -1 ------- null}
r -t 1.4611445 -s 2 -d 0 -p tcp -e 95 -c 2 -i 24 -a 2 -x {2.0 8.0 5 ------- null}
+ -t 1.4611445 -s 0 -d 3 -p tcp -e 95 -c 2 -i 24 -a 2 -x {2.0 8.0 5 ------- null}
- -t 1.461477 -s 0 -d 3 -p tcp -e 95 -c 2 -i 24 -a 2 -x {2.0 8.0 5 ------- null}
h -t 1.461477 -s 0 -d 3 -p tcp -e 95 -c 2 -i 24 -a 2 -x {2.0 8.0 -1 ------- null}
r -t 1.4615245 -s 2 -d 0 -p tcp -e 95 -c 2 -i 25 -a 2 -x {2.0 8.0 6 ------- null}
+ -t 1.4615245 -s 0 -d 3 -p tcp -e 95 -c 2 -i 25 -a 2 -x {2.0 8.0 6 ------- null}
- -t 1.462237 -s 0 -d 3 -p tcp -e 95 -c 2 -i 25 -a 2 -x {2.0 8.0 6 ------- null}
h -t 1.462237 -s 0 -d 3 -p tcp -e 95 -c 2 -i 25 -a 2 -x {2.0 8.0 -1 ------- null}
r -t 1.466847 -s 9 -d 3 -p ack -e 40 -c 1 -i 19 -a 1 -x {7.0 1.0 5 ------- null}
+ -t 1.466847 -s 3 -d 0 -p ack -e 40 -c 1 -i 19 -a 1 -x {7.0 1.0 5 ------- null}
- -t 1.466847 -s 3 -d 0 -p ack -e 40 -c 1 -i 19 -a 1 -x {7.0 1.0 5 ------- null}
h -t 1.466847 -s 3 -d 0 -p ack -e 40 -c 1 -i 19 -a 1 -x {7.0 1.0 -1 ------- null}
r -t 1.480717 -s 0 -d 3 -p tcp -e 95 -c 2 -i 22 -a 2 -x {2.0 8.0 3 ------- null}
h -t 1.480717 -s 3 -d 9 -p tcp -e 95 -c 2 -i 22 -a 2 -x {2.0 8.0 3 ------- null}
r -t 1.481477 -s 0 -d 3 -p tcp -e 95 -c 2 -i 23 -a 2 -x {2.0 8.0 4 ------- null}
h -t 1.481477 -s 3 -d 9 -p tcp -e 95 -c 2 -i 23 -a 2 -x {2.0 8.0 4 ------- null}
r -t 1.482237 -s 0 -d 3 -p tcp -e 95 -c 2 -i 24 -a 2 -x {2.0 8.0 5 ------- null}
h -t 1.482237 -s 3 -d 9 -p tcp -e 95 -c 2 -i 24 -a 2 -x {2.0 8.0 5 ------- null}
r -t 1.48287825 -s 9 -d 3 -p ack -e 40 -c 1 -i 20 -a 1 -x {7.0 1.0 6 ------- null}
+ -t 1.48287825 -s 3 -d 0 -p ack -e 40 -c 1 -i 20 -a 1 -x {7.0 1.0 6 ------- null}
- -t 1.48287825 -s 3 -d 0 -p ack -e 40 -c 1 -i 20 -a 1 -x {7.0 1.0 6 ------- null}
h -t 1.48287825 -s 3 -d 0 -p ack -e 40 -c 1 -i 20 -a 1 -x {7.0 1.0 -1 ------- null}
r -t 1.482997 -s 0 -d 3 -p tcp -e 95 -c 2 -i 25 -a 2 -x {2.0 8.0 6 ------- null}
h -t 1.482997 -s 3 -d 9 -p tcp -e 95 -c 2 -i 25 -a 2 -x {2.0 8.0 6 ------- null}
r -t 1.487167 -s 3 -d 0 -p ack -e 40 -c 1 -i 19 -a 1 -x {7.0 1.0 5 ------- null}
+ -t 1.487167 -s 0 -d 1 -p ack -e 40 -c 1 -i 19 -a 1 -x {7.0 1.0 5 ------- null}
- -t 1.487167 -s 0 -d 1 -p ack -e 40 -c 1 -i 19 -a 1 -x {7.0 1.0 5 ------- null}
h -t 1.487167 -s 0 -d 1 -p ack -e 40 -c 1 -i 19 -a 1 -x {7.0 1.0 -1 ------- null}
r -t 1.497327 -s 0 -d 1 -p ack -e 40 -c 1 -i 19 -a 1 -x {7.0 1.0 5 ------- null}
+ -t 1.497327 -s 1 -d 0 -p tcp -e 1000 -c 1 -i 26 -a 1 -x {1.0 7.0 8 ------- null}
- -t 1.497327 -s 1 -d 0 -p tcp -e 1000 -c 1 -i 26 -a 1 -x {1.0 7.0 8 ------- null}
h -t 1.497327 -s 1 -d 0 -p tcp -e 1000 -c 1 -i 26 -a 1 -x {1.0 7.0 -1 ------- null}
+ -t 1.497327 -s 1 -d 0 -p tcp -e 1000 -c 1 -i 27 -a 1 -x {1.0 7.0 9 ------- null}
r -t 1.4989095 -s 9 -d 3 -p ack -e 40 -c 1 -i 21 -a 1 -x {7.0 1.0 7 ------- null}
+ -t 1.4989095 -s 3 -d 0 -p ack -e 40 -c 1 -i 21 -a 1 -x {7.0 1.0 7 ------- null}
- -t 1.4989095 -s 3 -d 0 -p ack -e 40 -c 1 -i 21 -a 1 -x {7.0 1.0 7 ------- null}
h -t 1.4989095 -s 3 -d 0 -p ack -e 40 -c 1 -i 21 -a 1 -x {7.0 1.0 -1 ------- null}
- -t 1.501327 -s 1 -d 0 -p tcp -e 1000 -c 1 -i 27 -a 1 -x {1.0 7.0 9 ------- null}
h -t 1.501327 -s 1 -d 0 -p tcp -e 1000 -c 1 -i 27 -a 1 -x {1.0 7.0 -1 ------- null}
r -t 1.50319825 -s 3 -d 0 -p ack -e 40 -c 1 -i 20 -a 1 -x {7.0 1.0 6 ------- null}
+ -t 1.50319825 -s 0 -d 1 -p ack -e 40 -c 1 -i 20 -a 1 -x {7.0 1.0 6 ------- null}
- -t 1.50319825 -s 0 -d 1 -p ack -e 40 -c 1 -i 20 -a 1 -x {7.0 1.0 6 ------- null}
h -t 1.50319825 -s 0 -d 1 -p ack -e 40 -c 1 -i 20 -a 1 -x {7.0 1.0 -1 ------- null}
r -t 1.511327 -s 1 -d 0 -p tcp -e 1000 -c 1 -i 26 -a 1 -x {1.0 7.0 8 ------- null}
+ -t 1.511327 -s 0 -d 3 -p tcp -e 1000 -c 1 -i 26 -a 1 -x {1.0 7.0 8 ------- null}
- -t 1.511327 -s 0 -d 3 -p tcp -e 1000 -c 1 -i 26 -a 1 -x {1.0 7.0 8 ------- null}
h -t 1.511327 -s 0 -d 3 -p tcp -e 1000 -c 1 -i 26 -a 1 -x {1.0 7.0 -1 ------- null}
r -t 1.51335825 -s 0 -d 1 -p ack -e 40 -c 1 -i 20 -a 1 -x {7.0 1.0 6 ------- null}
+ -t 1.51335825 -s 1 -d 0 -p tcp -e 1000 -c 1 -i 28 -a 1 -x {1.0 7.0 10 ------- null}
- -t 1.51335825 -s 1 -d 0 -p tcp -e 1000 -c 1 -i 28 -a 1 -x {1.0 7.0 10 ------- null}
h -t 1.51335825 -s 1 -d 0 -p tcp -e 1000 -c 1 -i 28 -a 1 -x {1.0 7.0 -1 ------- null}
+ -t 1.51335825 -s 1 -d 0 -p tcp -e 1000 -c 1 -i 29 -a 1 -x {1.0 7.0 11 ------- null}
r -t 1.515327 -s 1 -d 0 -p tcp -e 1000 -c 1 -i 27 -a 1 -x {1.0 7.0 9 ------- null}
+ -t 1.515327 -s 0 -d 3 -p tcp -e 1000 -c 1 -i 27 -a 1 -x {1.0 7.0 9 ------- null}
- -t 1.51735825 -s 1 -d 0 -p tcp -e 1000 -c 1 -i 29 -a 1 -x {1.0 7.0 11 ------- null}
h -t 1.51735825 -s 1 -d 0 -p tcp -e 1000 -c 1 -i 29 -a 1 -x {1.0 7.0 -1 ------- null}
r -t 1.5192295 -s 3 -d 0 -p ack -e 40 -c 1 -i 21 -a 1 -x {7.0 1.0 7 ------- null}
+ -t 1.5192295 -s 0 -d 1 -p ack -e 40 -c 1 -i 21 -a 1 -x {7.0 1.0 7 ------- null}
- -t 1.5192295 -s 0 -d 1 -p ack -e 40 -c 1 -i 21 -a 1 -x {7.0 1.0 7 ------- null}
h -t 1.5192295 -s 0 -d 1 -p ack -e 40 -c 1 -i 21 -a 1 -x {7.0 1.0 -1 ------- null}
- -t 1.519327 -s 0 -d 3 -p tcp -e 1000 -c 1 -i 27 -a 1 -x {1.0 7.0 9 ------- null}
h -t 1.519327 -s 0 -d 3 -p tcp -e 1000 -c 1 -i 27 -a 1 -x {1.0 7.0 -1 ------- null}
+ -t 1.520717 -s 3 -d 9 -p tcp -e 95 -c 2 -i 22 -a 2 -x {2.0 8.0 3 ------- null}
- -t 1.520717 -s 3 -d 9 -p tcp -e 95 -c 2 -i 22 -a 2 -x {2.0 8.0 3 ------- null}
h -t 1.520717 -s 3 -d 9 -p tcp -e 95 -c 2 -i 22 -a 2 -x {2.0 8.0 -1 ------- null}
+ -t 1.521477 -s 3 -d 9 -p tcp -e 95 -c 2 -i 23 -a 2 -x {2.0 8.0 4 ------- null}
+ -t 1.522237 -s 3 -d 9 -p tcp -e 95 -c 2 -i 24 -a 2 -x {2.0 8.0 5 ------- null}
- -t 1.522607625 -s 3 -d 9 -p tcp -e 95 -c 2 -i 23 -a 2 -x {2.0 8.0 4 ------- null}
h -t 1.522607625 -s 3 -d 9 -p tcp -e 95 -c 2 -i 23 -a 2 -x {2.0 8.0 -1 ------- null}
+ -t 1.522997 -s 3 -d 9 -p tcp -e 95 -c 2 -i 25 -a 2 -x {2.0 8.0 6 ------- null}
- -t 1.52449825 -s 3 -d 9 -p tcp -e 95 -c 2 -i 24 -a 2 -x {2.0 8.0 5 ------- null}
h -t 1.52449825 -s 3 -d 9 -p tcp -e 95 -c 2 -i 24 -a 2 -x {2.0 8.0 -1 ------- null}
- -t 1.526388875 -s 3 -d 9 -p tcp -e 95 -c 2 -i 25 -a 2 -x {2.0 8.0 6 ------- null}